He   ONCVPSP-2.1.1   r_core=    1.99006
    2.0000   2.0000   150105   zatom,zion,pspd
    8   11   0   4   600   0   pspcod,pspxc,lmax,lloc,mmax,r2well
    5.99000000   0.00000000   0.00000000   rchrg fchrg qchrg
    2   0   0   0   0   nproj
    1   1   extension_switch
       0                        -1.8285269259000E+00 -6.9450215240000E-01
     1  0.0000000000000E+00  0.0000000000000E+00  0.0000000000000E+00
     2  1.0000000000000E-02  6.0671355020000E-02  1.8045324525000E-02
     3  2.0000000000000E-02  1.2125912073000E-01  3.6005940341000E-02
     4  3.0000000000000E-02  1.8167965947000E-01  5.3797230451000E-02
     5  4.0000000000000E-02  2.4184923870000E-01  7.1334762593000E-02
     6  5.0000000000000E-02  3.0168398825000E-01  8.8534384882000E-02
     7  6.0000000000000E-02  3.6109986292000E-01  1.0531232533000E-01
     8  7.0000000000000E-02  4.2001261241000E-01  1.2158529645000E-01
     9  8.0000000000000E-02  4.7833776020000E-01  1.3727060614000E-01
    10  9.0000000000000E-02  5.3599059283000E-01  1.5228627589000E-01
    11  1.0000000000000E-01  5.9288616136000E-01  1.6655116723000E-01
    12  1.1000000000000E-01  6.4893929607000E-01  1.7998511749000E-01
    13  1.2000000000000E-01  7.0406463601000E-01  1.9250908541000E-01
    14  1.3000000000000E-01  7.5817667423000E-01  2.0404530731000E-01
    15  1.4000000000000E-01  8.1118981984000E-01  2.1451746440000E-01
    16  1.5000000000000E-01  8.6301847766000E-01  2.2385086142000E-01
    17  1.6000000000000E-01  9.1357714607000E-01  2.3197261682000E-01
    18  1.7000000000000E-01  9.6278053364000E-01  2.3881186461000E-01
    19  1.8000000000000E-01  1.0105436947000E+00  2.4429996752000E-01
    20  1.9000000000000E-01  1.0567821838000E+00  2.4837074144000E-01
    21  2.0000000000000E-01  1.1014122298000E+00  2.5096069006000E-01
    22  2.1000000000000E-01  1.1443509278000E+00  2.5200925001000E-01
    23  2.2000000000000E-01  1.1855164497000E+00  2.5145904442000E-01
    24  2.3000000000000E-01  1.2248282725000E+00  2.4925614497000E-01
    25  2.4000000000000E-01  1.2622074227000E+00  2.4535034012000E-01
    26  2.5000000000000E-01  1.2975767372000E+00  2.3969541016000E-01
    27  2.6000000000000E-01  1.3308611370000E+00  2.3224940378000E-01
    28  2.7000000000000E-01  1.3619879161000E+00  2.2297492016000E-01
    29  2.8000000000000E-01  1.3908870393000E+00  2.1183938832000E-01
    30  2.9000000000000E-01  1.4174914515000E+00  1.9881534703000E-01
    31  3.0000000000000E-01  1.4417373940000E+00  1.8388072074000E-01
    32  3.1000000000000E-01  1.4635647267000E+00  1.6701908994000E-01
    33  3.2000000000000E-01  1.4829172526000E+00  1.4821995219000E-01
    34  3.3000000000000E-01  1.4997430475000E+00  1.2747897685000E-01
    35  3.4000000000000E-01  1.5139947853000E+00  1.0479824428000E-01
    36  3.5000000000000E-01  1.5256300577000E+00  8.0186467832000E-02
    37  3.6000000000000E-01  1.5346116978000E+00  5.3659207654000E-02
    38  3.7000000000000E-01  1.5409080852000E+00  2.5239055600000E-02
    39  3.8000000000000E-01  1.5444934400000E+00 -5.0442010208000E-03
    40  3.9000000000000E-01  1.5453481191000E+00 -3.7153428399000E-02
    41  4.0000000000000E-01  1.5434588778000E+00 -7.1044035975000E-02
    42  4.1000000000000E-01  1.5388191223000E+00 -1.0666388723000E-01
    43  4.2000000000000E-01  1.5314291421000E+00 -1.4395324136000E-01
    44  4.3000000000000E-01  1.5212963185000E+00 -1.8284472767000E-01
    45  4.4000000000000E-01  1.5084353082000E+00 -2.2326335407000E-01
    46  4.5000000000000E-01  1.4928682005000E+00 -2.6512655105000E-01
    47  4.6000000000000E-01  1.4746246448000E+00 -3.0834425279000E-01
    48  4.7000000000000E-01  1.4537419479000E+00 -3.5281901635000E-01
    49  4.8000000000000E-01  1.4302651326000E+00 -3.9844617982000E-01
    50  4.9000000000000E-01  1.4042469878000E+00 -4.4511405805000E-01
    51  5.0000000000000E-01  1.3757480484000E+00 -4.9270418567000E-01
    52  5.1000000000000E-01  1.3448365542000E+00 -5.4109159221000E-01
    53  5.2000000000000E-01  1.3115883821000E+00 -5.9014512025000E-01
    54  5.3000000000000E-01  1.2760869359000E+00 -6.3972780046000E-01
    55  5.4000000000000E-01  1.2384229754000E+00 -6.8969721968000E-01
    56  5.5000000000000E-01  1.1986944502000E+00 -7.3990600736000E-01
    57  5.6000000000000E-01  1.1570062527000E+00 -7.9020226506000E-01
    58  5.7000000000000E-01  1.1134699629000E+00 -8.4043012480000E-01
    59  5.8000000000000E-01  1.0682035427000E+00 -8.9043025795000E-01
    60  5.9000000000000E-01  1.0213309892000E+00 -9.4004052258000E-01
    61  6.0000000000000E-01  9.7298198687000E-01 -9.8909646621000E-01
    62  6.1000000000000E-01  9.2329144183000E-01 -1.0374321602000E+00
    63  6.2000000000000E-01  8.7239912174000E-01 -1.0848806387000E+00
    64  6.3000000000000E-01  8.2044910440000E-01 -1.1312748047000E+00
    65  6.4000000000000E-01  7.6758929770000E-01 -1.1764480845000E+00
    66  6.5000000000000E-01  7.1397098045000E-01 -1.2202350344000E+00
    67  6.6000000000000E-01  6.5974813257000E-01 -1.2624723246000E+00
    68  6.7000000000000E-01  6.0507689958000E-01 -1.3029994191000E+00
    69  6.8000000000000E-01  5.5011503246000E-01 -1.3416592899000E+00
    70  6.9000000000000E-01  4.9502132506000E-01 -1.3782991285000E+00
    71  7.0000000000000E-01  4.3995476365000E-01 -1.4127714890000E+00
    72  7.1000000000000E-01  3.8507407161000E-01 -1.4449347681000E+00
    73  7.2000000000000E-01  3.3053701936000E-01 -1.4746540570000E+00
    74  7.3000000000000E-01  2.7649975610000E-01 -1.5018019358000E+00
    75  7.4000000000000E-01  2.2311618914000E-01 -1.5262591853000E+00
    76  7.5000000000000E-01  1.7053722979000E-01 -1.5479156727000E+00
    77  7.6000000000000E-01  1.1891011750000E-01 -1.5666711063000E+00
    78  7.7000000000000E-01  6.8377861610000E-02 -1.5824356201000E+00
    79  7.8000000000000E-01  1.9078544595000E-02 -1.5951305418000E+00
    80  7.9000000000000E-01 -2.8855320735000E-02 -1.6046890732000E+00
    81  8.0000000000000E-01 -7.5297421815000E-02 -1.6110569454000E+00
    82  8.1000000000000E-01 -1.2012826234000E-01 -1.6141930463000E+00
    83  8.2000000000000E-01 -1.6323576158000E-01 -1.6140700178000E+00
    84  8.3000000000000E-01 -2.0451583506000E-01 -1.6106748236000E+00
    85  8.4000000000000E-01 -2.4387295478000E-01 -1.6040092841000E+00
    86  8.5000000000000E-01 -2.8122068752000E-01 -1.5940905790000E+00
    87  8.6000000000000E-01 -3.1648220978000E-01 -1.5809517177000E+00
    88  8.7000000000000E-01 -3.4959079826000E-01 -1.5646419755000E+00
    89  8.8000000000000E-01 -3.8049029499000E-01 -1.5452272978000E+00
    90  8.9000000000000E-01 -4.0913555177000E-01 -1.5227907039000E+00
    91  9.0000000000000E-01 -4.3549286091000E-01 -1.4974327039000E+00
    92  9.1000000000000E-01 -4.5953987638000E-01 -1.4692689547000E+00
    93  9.2000000000000E-01 -4.8126495241000E-01 -1.4384256020000E+00
    94  9.3000000000000E-01 -5.0066654785000E-01 -1.4050363726000E+00
    95  9.4000000000000E-01 -5.1775293900000E-01 -1.3692421026000E+00
    96  9.5000000000000E-01 -5.3254189766000E-01 -1.3311902068000E+00
    97  9.6000000000000E-01 -5.4506021842000E-01 -1.2910341860000E+00
    98  9.7000000000000E-01 -5.5534369329000E-01 -1.2489327646000E+00
    99  9.8000000000000E-01 -5.6343632499000E-01 -1.2050494066000E+00
   100  9.9000000000000E-01 -5.6938997362000E-01 -1.1595516159000E+00
   101  1.0000000000000E+00 -5.7326389179000E-01 -1.1126102399000E+00
   102  1.0100000000000E+00 -5.7512422827000E-01 -1.0643987692000E+00
   103  1.0200000000000E+00 -5.7504351394000E-01 -1.0150926980000E+00
   104  1.0300000000000E+00 -5.7310018605000E-01 -9.6486899534000E-01
   105  1.0400000000000E+00 -5.6937798758000E-01 -9.1390444640000E-01
   106  1.0500000000000E+00 -5.6396535464000E-01 -8.6237584269000E-01
   107  1.0600000000000E+00 -5.5695489557000E-01 -8.1045899587000E-01
   108  1.0700000000000E+00 -5.4844285402000E-01 -7.5832811288000E-01
   109  1.0800000000000E+00 -5.3852877784000E-01 -7.0615569864000E-01
   110  1.0900000000000E+00 -5.2731421905000E-01 -6.5410963409000E-01
   111  1.1000000000000E+00 -5.1490275752000E-01 -6.0235465589000E-01
   112  1.1100000000000E+00 -5.0139931760000E-01 -5.5105112512000E-01
   113  1.1200000000000E+00 -4.8691011259000E-01 -5.0035542123000E-01
   114  1.1300000000000E+00 -4.7154088979000E-01 -4.5041660353000E-01
   115  1.1400000000000E+00 -4.5539709095000E-01 -4.0137765232000E-01
   116  1.1500000000000E+00 -4.3858352941000E-01 -3.5337520333000E-01
   117  1.1600000000000E+00 -4.2120468160000E-01 -3.0654032802000E-01
   118  1.1700000000000E+00 -4.0336160335000E-01 -2.6099331340000E-01
   119  1.1800000000000E+00 -3.8515363129000E-01 -2.1684738962000E-01
   120  1.1900000000000E+00 -3.6667815474000E-01 -1.7420845698000E-01
   121  1.2000000000000E+00 -3.4802949931000E-01 -1.3317342713000E-01
   122  1.2100000000000E+00 -3.2929715158000E-01 -9.3827921531000E-02
   123  1.2200000000000E+00 -3.1056787013000E-01 -5.6249943206000E-02
   124  1.2300000000000E+00 -2.9192581473000E-01 -2.0510032473000E-02
   125  1.2400000000000E+00 -2.7344766703000E-01  1.3335482280000E-02
   126  1.2500000000000E+00 -2.5520706577000E-01  4.5237590565000E-02
   127  1.2600000000000E+00 -2.3727485137000E-01  7.5154424287000E-02
   128  1.2700000000000E+00 -2.1971317826000E-01  1.0305882402000E-01
   129  1.2800000000000E+00 -2.0258073815000E-01  1.2893087456000E-01
   130  1.2900000000000E+00 -1.8593333425000E-01  1.5275741829000E-01
   131  1.3000000000000E+00 -1.6981713507000E-01  1.7453991643000E-01
   132  1.3100000000000E+00 -1.5427544592000E-01  1.9428577212000E-01
   133  1.3200000000000E+00 -1.3934754510000E-01  2.1200998280000E-01
   134  1.3300000000000E+00 -1.2506372092000E-01  2.2773995938000E-01
   135  1.3400000000000E+00 -1.1145208073000E-01  2.4150792778000E-01
   136  1.3500000000000E+00 -9.8534818144000E-02  2.5335488517000E-01
   137  1.3600000000000E+00 -8.6327350611000E-02  2.6333048664000E-01
   138  1.3700000000000E+00 -7.4843335658000E-02  2.7148868419000E-01
   139  1.3800000000000E+00 -6.4088506404000E-02  2.7789244980000E-01
   140  1.3900000000000E+00 -5.4065418472000E-02  2.8260927346000E-01
   141  1.4000000000000E+00 -4.4773228507000E-02  2.8571190681000E-01
   142  1.4100000000000E+00 -3.6204320468000E-02  2.8727887683000E-01
   143  1.4200000000000E+00 -2.8350083670000E-02  2.8739196005000E-01
   144  1.4300000000000E+00 -2.1195971078000E-02  2.8613735429000E-01
   145  1.4400000000000E+00 -1.4725142367000E-02  2.8360368378000E-01
   146  1.4500000000000E+00 -8.9178647420000E-03  2.7988300132000E-01
   147  1.4600000000000E+00 -3.7504967173000E-03  2.7506765391000E-01
   148  1.4700000000000E+00  8.0157924261000E-04  2.6925378624000E-01
   149  1.4800000000000E+00  4.7666891856000E-03  2.6253527494000E-01
   150  1.4900000000000E+00  8.1739428681000E-03  2.5500864173000E-01
   151  1.5000000000000E+00  1.1054675562000E-02  2.4676870103000E-01
   152  1.5100000000000E+00  1.3441066248000E-02  2.3790898143000E-01
   153  1.5200000000000E+00  1.5366750310000E-02  2.2852382903000E-01
   154  1.5300000000000E+00  1.6865283603000E-02  2.1870106321000E-01
   155  1.5400000000000E+00  1.7971870515000E-02  2.0853302435000E-01
   156  1.5500000000000E+00  1.8720049193000E-02  1.9810018105000E-01
   157  1.5600000000000E+00  1.9145388841000E-02  1.8748956404000E-01
   158  1.5700000000000E+00  1.9280694305000E-02  1.7677472406000E-01
   159  1.5800000000000E+00  1.9160401384000E-02  1.6603390666000E-01
   160  1.5900000000000E+00  1.8816097789000E-02  1.5533379949000E-01
   161  1.6000000000000E+00  1.8279929953000E-02  1.4474209129000E-01
   162  1.6100000000000E+00  1.7581595946000E-02  1.3431756158000E-01
   163  1.6200000000000E+00  1.6750117825000E-02  1.2411650351000E-01
   164  1.6300000000000E+00  1.5812672142000E-02  1.1418884967000E-01
   165  1.6400000000000E+00  1.4794579937000E-02  1.0457917515000E-01
   166  1.6500000000000E+00  1.3719927286000E-02  9.5327796716000E-02
   167  1.6600000000000E+00  1.2610007602000E-02  8.6467711172000E-02
   168  1.6700000000000E+00  1.1485337758000E-02  7.8029081729000E-02
   169  1.6800000000000E+00  1.0363085485000E-02  7.0033861290000E-02
   170  1.6900000000000E+00  9.2598378209000E-03  6.2501807611000E-02
   171  1.7000000000000E+00  8.1887359421000E-03  5.5444679849000E-02
   172  1.7100000000000E+00  7.1622210943000E-03  4.8871912117000E-02
   173  1.7200000000000E+00  6.1896642749000E-03  4.2786145668000E-02
   174  1.7300000000000E+00  5.2793146165000E-03  3.7186949171000E-02
   175  1.7400000000000E+00  4.4371389123000E-03  3.2069046508000E-02
   176  1.7500000000000E+00  3.6673405149000E-03  2.7423012822000E-02
   177  1.7600000000000E+00  2.9729041007000E-03  2.3236871859000E-02
   178  1.7700000000000E+00  2.3543453674000E-03  1.9493518110000E-02
   179  1.7800000000000E+00  1.8120902010000E-03  1.6175404356000E-02
   180  1.7900000000000E+00  1.3435469201000E-03  1.3259503757000E-02
   181  1.8000000000000E+00  9.4695895483000E-04  1.0723655628000E-02
   182  1.8100000000000E+00  6.1742284742000E-04  8.5410823002000E-03
   183  1.8200000000000E+00  3.5129881907000E-04  6.6857579403000E-03
   184  1.8300000000000E+00  1.4237080609000E-04  5.1295780954000E-03
   185  1.8400000000000E+00 -1.4730633571000E-05  3.8433998281000E-03
   186  1.8500000000000E+00 -1.2649198955000E-04  2.7997422083000E-03
   187  1.8600000000000E+00 -1.9951553737000E-04  1.9683831545000E-03
   188  1.8700000000000E+00 -2.4005533159000E-04  1.3229061985000E-03
   189  1.8800000000000E+00 -2.5487799847000E-04  8.3488165255000E-04
   190  1.8900000000000E+00 -2.5001824068000E-04  4.7878244714000E-04
   191  1.9000000000000E+00 -2.3114615138000E-04  2.3099783497000E-04
   192  1.9100000000000E+00 -2.0420745617000E-04  6.6510668991000E-05
   193  1.9200000000000E+00 -1.7261523832000E-04 -3.0813554497000E-05
   194  1.9300000000000E+00 -1.4225873100000E-04 -8.5493442387000E-05
   195  1.9400000000000E+00 -1.1410506930000E-04 -1.0638474536000E-04
   196  1.9500000000000E+00 -9.1929313893000E-05 -1.1125938103000E-04
   197  1.9600000000000E+00 -7.5885019462000E-05 -1.0702242966000E-04
   198  1.9700000000000E+00 -6.7354907677000E-05 -1.0269990631000E-04
   199  1.9800000000000E+00 -6.5686632675000E-05 -1.0365342612000E-04
   200  1.9900000000000E+00 -6.1150791410000E-05 -9.5791282967000E-05
   201  2.0000000000000E+00 -3.5825090815000E-05 -5.6493695168000E-05
   202  2.0100000000000E+00 -9.0639033254000E-06 -1.4356849106000E-05
   203  2.0200000000000E+00  3.4821306167000E-06  5.4540555713000E-06
   204  2.0300000000000E+00  3.1764994447000E-06  4.9753459593000E-06
   205  2.0400000000000E+00  0.0000000000000E+00  0.0000000000000E+00
   206  2.0500000000000E+00  0.0000000000000E+00  0.0000000000000E+00
   207  2.0600000000000E+00  0.0000000000000E+00  0.0000000000000E+00
   208  2.0700000000000E+00  0.0000000000000E+00  0.0000000000000E+00
   209  2.0800000000000E+00  0.0000000000000E+00  0.0000000000000E+00
   210  2.0900000000000E+00  0.0000000000000E+00  0.0000000000000E+00
   211  2.1000000000000E+00  0.0000000000000E+00  0.0000000000000E+00
   212  2.1100000000000E+00  0.0000000000000E+00  0.0000000000000E+00
   213  2.1200000000000E+00  0.0000000000000E+00  0.0000000000000E+00
   214  2.1300000000000E+00  0.0000000000000E+00  0.0000000000000E+00
   215  2.1400000000000E+00  0.0000000000000E+00  0.0000000000000E+00
   216  2.1500000000000E+00  0.0000000000000E+00  0.0000000000000E+00
   217  2.1600000000000E+00  0.0000000000000E+00  0.0000000000000E+00
   218  2.1700000000000E+00  0.0000000000000E+00  0.0000000000000E+00
   219  2.1800000000000E+00  0.0000000000000E+00  0.0000000000000E+00
   220  2.1900000000000E+00  0.0000000000000E+00  0.0000000000000E+00
   221  2.2000000000000E+00  0.0000000000000E+00  0.0000000000000E+00
   222  2.2100000000000E+00  0.0000000000000E+00  0.0000000000000E+00
   223  2.2200000000000E+00  0.0000000000000E+00  0.0000000000000E+00
   224  2.2300000000000E+00  0.0000000000000E+00  0.0000000000000E+00
   225  2.2400000000000E+00  0.0000000000000E+00  0.0000000000000E+00
   226  2.2500000000000E+00  0.0000000000000E+00  0.0000000000000E+00
   227  2.2600000000000E+00  0.0000000000000E+00  0.0000000000000E+00
   228  2.2700000000000E+00  0.0000000000000E+00  0.0000000000000E+00
   229  2.2800000000000E+00  0.0000000000000E+00  0.0000000000000E+00
   230  2.2900000000000E+00  0.0000000000000E+00  0.0000000000000E+00
   231  2.3000000000000E+00  0.0000000000000E+00  0.0000000000000E+00
   232  2.3100000000000E+00  0.0000000000000E+00  0.0000000000000E+00
   233  2.3200000000000E+00  0.0000000000000E+00  0.0000000000000E+00
   234  2.3300000000000E+00  0.0000000000000E+00  0.0000000000000E+00
   235  2.3400000000000E+00  0.0000000000000E+00  0.0000000000000E+00
   236  2.3500000000000E+00  0.0000000000000E+00  0.0000000000000E+00
   237  2.3600000000000E+00  0.0000000000000E+00  0.0000000000000E+00
   238  2.3700000000000E+00  0.0000000000000E+00  0.0000000000000E+00
   239  2.3800000000000E+00  0.0000000000000E+00  0.0000000000000E+00
   240  2.3900000000000E+00  0.0000000000000E+00  0.0000000000000E+00
   241  2.4000000000000E+00  0.0000000000000E+00  0.0000000000000E+00
   242  2.4100000000000E+00  0.0000000000000E+00  0.0000000000000E+00
   243  2.4200000000000E+00  0.0000000000000E+00  0.0000000000000E+00
   244  2.4300000000000E+00  0.0000000000000E+00  0.0000000000000E+00
   245  2.4400000000000E+00  0.0000000000000E+00  0.0000000000000E+00
   246  2.4500000000000E+00  0.0000000000000E+00  0.0000000000000E+00
   247  2.4600000000000E+00  0.0000000000000E+00  0.0000000000000E+00
   248  2.4700000000000E+00  0.0000000000000E+00  0.0000000000000E+00
   249  2.4800000000000E+00  0.0000000000000E+00  0.0000000000000E+00
   250  2.4900000000000E+00  0.0000000000000E+00  0.0000000000000E+00
   251  2.5000000000000E+00  0.0000000000000E+00  0.0000000000000E+00
   252  2.5100000000000E+00  0.0000000000000E+00  0.0000000000000E+00
   253  2.5200000000000E+00  0.0000000000000E+00  0.0000000000000E+00
   254  2.5300000000000E+00  0.0000000000000E+00  0.0000000000000E+00
   255  2.5400000000000E+00  0.0000000000000E+00  0.0000000000000E+00
   256  2.5500000000000E+00  0.0000000000000E+00  0.0000000000000E+00
   257  2.5600000000000E+00  0.0000000000000E+00  0.0000000000000E+00
   258  2.5700000000000E+00  0.0000000000000E+00  0.0000000000000E+00
   259  2.5800000000000E+00  0.0000000000000E+00  0.0000000000000E+00
   260  2.5900000000000E+00  0.0000000000000E+00  0.0000000000000E+00
   261  2.6000000000000E+00  0.0000000000000E+00  0.0000000000000E+00
   262  2.6100000000000E+00  0.0000000000000E+00  0.0000000000000E+00
   263  2.6200000000000E+00  0.0000000000000E+00  0.0000000000000E+00
   264  2.6300000000000E+00  0.0000000000000E+00  0.0000000000000E+00
   265  2.6400000000000E+00  0.0000000000000E+00  0.0000000000000E+00
   266  2.6500000000000E+00  0.0000000000000E+00  0.0000000000000E+00
   267  2.6600000000000E+00  0.0000000000000E+00  0.0000000000000E+00
   268  2.6700000000000E+00  0.0000000000000E+00  0.0000000000000E+00
   269  2.6800000000000E+00  0.0000000000000E+00  0.0000000000000E+00
   270  2.6900000000000E+00  0.0000000000000E+00  0.0000000000000E+00
   271  2.7000000000000E+00  0.0000000000000E+00  0.0000000000000E+00
   272  2.7100000000000E+00  0.0000000000000E+00  0.0000000000000E+00
   273  2.7200000000000E+00  0.0000000000000E+00  0.0000000000000E+00
   274  2.7300000000000E+00  0.0000000000000E+00  0.0000000000000E+00
   275  2.7400000000000E+00  0.0000000000000E+00  0.0000000000000E+00
   276  2.7500000000000E+00  0.0000000000000E+00  0.0000000000000E+00
   277  2.7600000000000E+00  0.0000000000000E+00  0.0000000000000E+00
   278  2.7700000000000E+00  0.0000000000000E+00  0.0000000000000E+00
   279  2.7800000000000E+00  0.0000000000000E+00  0.0000000000000E+00
   280  2.7900000000000E+00  0.0000000000000E+00  0.0000000000000E+00
   281  2.8000000000000E+00  0.0000000000000E+00  0.0000000000000E+00
   282  2.8100000000000E+00  0.0000000000000E+00  0.0000000000000E+00
   283  2.8200000000000E+00  0.0000000000000E+00  0.0000000000000E+00
   284  2.8300000000000E+00  0.0000000000000E+00  0.0000000000000E+00
   285  2.8400000000000E+00  0.0000000000000E+00  0.0000000000000E+00
   286  2.8500000000000E+00  0.0000000000000E+00  0.0000000000000E+00
   287  2.8600000000000E+00  0.0000000000000E+00  0.0000000000000E+00
   288  2.8700000000000E+00  0.0000000000000E+00  0.0000000000000E+00
   289  2.8800000000000E+00  0.0000000000000E+00  0.0000000000000E+00
   290  2.8900000000000E+00  0.0000000000000E+00  0.0000000000000E+00
   291  2.9000000000000E+00  0.0000000000000E+00  0.0000000000000E+00
   292  2.9100000000000E+00  0.0000000000000E+00  0.0000000000000E+00
   293  2.9200000000000E+00  0.0000000000000E+00  0.0000000000000E+00
   294  2.9300000000000E+00  0.0000000000000E+00  0.0000000000000E+00
   295  2.9400000000000E+00  0.0000000000000E+00  0.0000000000000E+00
   296  2.9500000000000E+00  0.0000000000000E+00  0.0000000000000E+00
   297  2.9600000000000E+00  0.0000000000000E+00  0.0000000000000E+00
   298  2.9700000000000E+00  0.0000000000000E+00  0.0000000000000E+00
   299  2.9800000000000E+00  0.0000000000000E+00  0.0000000000000E+00
   300  2.9900000000000E+00  0.0000000000000E+00  0.0000000000000E+00
   301  3.0000000000000E+00  0.0000000000000E+00  0.0000000000000E+00
   302  3.0100000000000E+00  0.0000000000000E+00  0.0000000000000E+00
   303  3.0200000000000E+00  0.0000000000000E+00  0.0000000000000E+00
   304  3.0300000000000E+00  0.0000000000000E+00  0.0000000000000E+00
   305  3.0400000000000E+00  0.0000000000000E+00  0.0000000000000E+00
   306  3.0500000000000E+00  0.0000000000000E+00  0.0000000000000E+00
   307  3.0600000000000E+00  0.0000000000000E+00  0.0000000000000E+00
   308  3.0700000000000E+00  0.0000000000000E+00  0.0000000000000E+00
   309  3.0800000000000E+00  0.0000000000000E+00  0.0000000000000E+00
   310  3.0900000000000E+00  0.0000000000000E+00  0.0000000000000E+00
   311  3.1000000000000E+00  0.0000000000000E+00  0.0000000000000E+00
   312  3.1100000000000E+00  0.0000000000000E+00  0.0000000000000E+00
   313  3.1200000000000E+00  0.0000000000000E+00  0.0000000000000E+00
   314  3.1300000000000E+00  0.0000000000000E+00  0.0000000000000E+00
   315  3.1400000000000E+00  0.0000000000000E+00  0.0000000000000E+00
   316  3.1500000000000E+00  0.0000000000000E+00  0.0000000000000E+00
   317  3.1600000000000E+00  0.0000000000000E+00  0.0000000000000E+00
   318  3.1700000000000E+00  0.0000000000000E+00  0.0000000000000E+00
   319  3.1800000000000E+00  0.0000000000000E+00  0.0000000000000E+00
   320  3.1900000000000E+00  0.0000000000000E+00  0.0000000000000E+00
   321  3.2000000000000E+00  0.0000000000000E+00  0.0000000000000E+00
   322  3.2100000000000E+00  0.0000000000000E+00  0.0000000000000E+00
   323  3.2200000000000E+00  0.0000000000000E+00  0.0000000000000E+00
   324  3.2300000000000E+00  0.0000000000000E+00  0.0000000000000E+00
   325  3.2400000000000E+00  0.0000000000000E+00  0.0000000000000E+00
   326  3.2500000000000E+00  0.0000000000000E+00  0.0000000000000E+00
   327  3.2600000000000E+00  0.0000000000000E+00  0.0000000000000E+00
   328  3.2700000000000E+00  0.0000000000000E+00  0.0000000000000E+00
   329  3.2800000000000E+00  0.0000000000000E+00  0.0000000000000E+00
   330  3.2900000000000E+00  0.0000000000000E+00  0.0000000000000E+00
   331  3.3000000000000E+00  0.0000000000000E+00  0.0000000000000E+00
   332  3.3100000000000E+00  0.0000000000000E+00  0.0000000000000E+00
   333  3.3200000000000E+00  0.0000000000000E+00  0.0000000000000E+00
   334  3.3300000000000E+00  0.0000000000000E+00  0.0000000000000E+00
   335  3.3400000000000E+00  0.0000000000000E+00  0.0000000000000E+00
   336  3.3500000000000E+00  0.0000000000000E+00  0.0000000000000E+00
   337  3.3600000000000E+00  0.0000000000000E+00  0.0000000000000E+00
   338  3.3700000000000E+00  0.0000000000000E+00  0.0000000000000E+00
   339  3.3800000000000E+00  0.0000000000000E+00  0.0000000000000E+00
   340  3.3900000000000E+00  0.0000000000000E+00  0.0000000000000E+00
   341  3.4000000000000E+00  0.0000000000000E+00  0.0000000000000E+00
   342  3.4100000000000E+00  0.0000000000000E+00  0.0000000000000E+00
   343  3.4200000000000E+00  0.0000000000000E+00  0.0000000000000E+00
   344  3.4300000000000E+00  0.0000000000000E+00  0.0000000000000E+00
   345  3.4400000000000E+00  0.0000000000000E+00  0.0000000000000E+00
   346  3.4500000000000E+00  0.0000000000000E+00  0.0000000000000E+00
   347  3.4600000000000E+00  0.0000000000000E+00  0.0000000000000E+00
   348  3.4700000000000E+00  0.0000000000000E+00  0.0000000000000E+00
   349  3.4800000000000E+00  0.0000000000000E+00  0.0000000000000E+00
   350  3.4900000000000E+00  0.0000000000000E+00  0.0000000000000E+00
   351  3.5000000000000E+00  0.0000000000000E+00  0.0000000000000E+00
   352  3.5100000000000E+00  0.0000000000000E+00  0.0000000000000E+00
   353  3.5200000000000E+00  0.0000000000000E+00  0.0000000000000E+00
   354  3.5300000000000E+00  0.0000000000000E+00  0.0000000000000E+00
   355  3.5400000000000E+00  0.0000000000000E+00  0.0000000000000E+00
   356  3.5500000000000E+00  0.0000000000000E+00  0.0000000000000E+00
   357  3.5600000000000E+00  0.0000000000000E+00  0.0000000000000E+00
   358  3.5700000000000E+00  0.0000000000000E+00  0.0000000000000E+00
   359  3.5800000000000E+00  0.0000000000000E+00  0.0000000000000E+00
   360  3.5900000000000E+00  0.0000000000000E+00  0.0000000000000E+00
   361  3.6000000000000E+00  0.0000000000000E+00  0.0000000000000E+00
   362  3.6100000000000E+00  0.0000000000000E+00  0.0000000000000E+00
   363  3.6200000000000E+00  0.0000000000000E+00  0.0000000000000E+00
   364  3.6300000000000E+00  0.0000000000000E+00  0.0000000000000E+00
   365  3.6400000000000E+00  0.0000000000000E+00  0.0000000000000E+00
   366  3.6500000000000E+00  0.0000000000000E+00  0.0000000000000E+00
   367  3.6600000000000E+00  0.0000000000000E+00  0.0000000000000E+00
   368  3.6700000000000E+00  0.0000000000000E+00  0.0000000000000E+00
   369  3.6800000000000E+00  0.0000000000000E+00  0.0000000000000E+00
   370  3.6900000000000E+00  0.0000000000000E+00  0.0000000000000E+00
   371  3.7000000000000E+00  0.0000000000000E+00  0.0000000000000E+00
   372  3.7100000000000E+00  0.0000000000000E+00  0.0000000000000E+00
   373  3.7200000000000E+00  0.0000000000000E+00  0.0000000000000E+00
   374  3.7300000000000E+00  0.0000000000000E+00  0.0000000000000E+00
   375  3.7400000000000E+00  0.0000000000000E+00  0.0000000000000E+00
   376  3.7500000000000E+00  0.0000000000000E+00  0.0000000000000E+00
   377  3.7600000000000E+00  0.0000000000000E+00  0.0000000000000E+00
   378  3.7700000000000E+00  0.0000000000000E+00  0.0000000000000E+00
   379  3.7800000000000E+00  0.0000000000000E+00  0.0000000000000E+00
   380  3.7900000000000E+00  0.0000000000000E+00  0.0000000000000E+00
   381  3.8000000000000E+00  0.0000000000000E+00  0.0000000000000E+00
   382  3.8100000000000E+00  0.0000000000000E+00  0.0000000000000E+00
   383  3.8200000000000E+00  0.0000000000000E+00  0.0000000000000E+00
   384  3.8300000000000E+00  0.0000000000000E+00  0.0000000000000E+00
   385  3.8400000000000E+00  0.0000000000000E+00  0.0000000000000E+00
   386  3.8500000000000E+00  0.0000000000000E+00  0.0000000000000E+00
   387  3.8600000000000E+00  0.0000000000000E+00  0.0000000000000E+00
   388  3.8700000000000E+00  0.0000000000000E+00  0.0000000000000E+00
   389  3.8800000000000E+00  0.0000000000000E+00  0.0000000000000E+00
   390  3.8900000000000E+00  0.0000000000000E+00  0.0000000000000E+00
   391  3.9000000000000E+00  0.0000000000000E+00  0.0000000000000E+00
   392  3.9100000000000E+00  0.0000000000000E+00  0.0000000000000E+00
   393  3.9200000000000E+00  0.0000000000000E+00  0.0000000000000E+00
   394  3.9300000000000E+00  0.0000000000000E+00  0.0000000000000E+00
   395  3.9400000000000E+00  0.0000000000000E+00  0.0000000000000E+00
   396  3.9500000000000E+00  0.0000000000000E+00  0.0000000000000E+00
   397  3.9600000000000E+00  0.0000000000000E+00  0.0000000000000E+00
   398  3.9700000000000E+00  0.0000000000000E+00  0.0000000000000E+00
   399  3.9800000000000E+00  0.0000000000000E+00  0.0000000000000E+00
   400  3.9900000000000E+00  0.0000000000000E+00  0.0000000000000E+00
   401  4.0000000000000E+00  0.0000000000000E+00  0.0000000000000E+00
   402  4.0100000000000E+00  0.0000000000000E+00  0.0000000000000E+00
   403  4.0200000000000E+00  0.0000000000000E+00  0.0000000000000E+00
   404  4.0300000000000E+00  0.0000000000000E+00  0.0000000000000E+00
   405  4.0400000000000E+00  0.0000000000000E+00  0.0000000000000E+00
   406  4.0500000000000E+00  0.0000000000000E+00  0.0000000000000E+00
   407  4.0600000000000E+00  0.0000000000000E+00  0.0000000000000E+00
   408  4.0700000000000E+00  0.0000000000000E+00  0.0000000000000E+00
   409  4.0800000000000E+00  0.0000000000000E+00  0.0000000000000E+00
   410  4.0900000000000E+00  0.0000000000000E+00  0.0000000000000E+00
   411  4.1000000000000E+00  0.0000000000000E+00  0.0000000000000E+00
   412  4.1100000000000E+00  0.0000000000000E+00  0.0000000000000E+00
   413  4.1200000000000E+00  0.0000000000000E+00  0.0000000000000E+00
   414  4.1300000000000E+00  0.0000000000000E+00  0.0000000000000E+00
   415  4.1400000000000E+00  0.0000000000000E+00  0.0000000000000E+00
   416  4.1500000000000E+00  0.0000000000000E+00  0.0000000000000E+00
   417  4.1600000000000E+00  0.0000000000000E+00  0.0000000000000E+00
   418  4.1700000000000E+00  0.0000000000000E+00  0.0000000000000E+00
   419  4.1800000000000E+00  0.0000000000000E+00  0.0000000000000E+00
   420  4.1900000000000E+00  0.0000000000000E+00  0.0000000000000E+00
   421  4.2000000000000E+00  0.0000000000000E+00  0.0000000000000E+00
   422  4.2100000000000E+00  0.0000000000000E+00  0.0000000000000E+00
   423  4.2200000000000E+00  0.0000000000000E+00  0.0000000000000E+00