Li   ONCVPSP-2.1.1   r_core=    1.74553 1.40824
    3.0000   3.0000   150105   zatom,zion,pspd
    8   11   1   4   600   0   pspcod,pspxc,lmax,lloc,mmax,r2well
    5.99000000   0.00000000   0.00000000   rchrg fchrg qchrg
    2   2   0   0   0   nproj
    1   1   extension_switch
       0                        -4.7078134849500E+00 -2.1915924209000E+00
     1  0.0000000000000E+00  0.0000000000000E+00  0.0000000000000E+00
     2  1.0000000000000E-02 -7.7568112882000E-02 -1.0194882249000E-02
     3  2.0000000000000E-02 -1.5498724243000E-01 -2.0405942846000E-02
     4  3.0000000000000E-02 -2.3210801498000E-01 -3.0649828503000E-02
     5  4.0000000000000E-02 -3.0878028656000E-01 -4.0944114104000E-02
     6  5.0000000000000E-02 -3.8485278363000E-01 -5.1307745504000E-02
     7  6.0000000000000E-02 -4.6017277454000E-01 -6.1761457061000E-02
     8  7.0000000000000E-02 -5.3458578125000E-01 -7.2328155947000E-02
     9  8.0000000000000E-02 -6.0793534073000E-01 -8.3033265677000E-02
    10  9.0000000000000E-02 -6.8006282433000E-01 -9.3905021777000E-02
    11  1.0000000000000E-01 -7.5080732330000E-01 -1.0497471309000E-01
    12  1.1000000000000E-01 -8.2000560723000E-01 -1.1627686287000E-01
    13  1.2000000000000E-01 -8.8749216190000E-01 -1.2784934449000E-01
    14  1.3000000000000E-01 -9.5309931153000E-01 -1.3973342752000E-01
    15  1.4000000000000E-01 -1.0166574296000E+00 -1.5197375062000E-01
    16  1.5000000000000E-01 -1.0779952417000E+00 -1.6461821862000E-01
    17  1.6000000000000E-01 -1.1369402214000E+00 -1.7771782234000E-01
    18  1.7000000000000E-01 -1.1933190810000E+00 -1.9132638023000E-01
    19  1.8000000000000E-01 -1.2469583555000E+00 -2.0550020237000E-01
    20  1.9000000000000E-01 -1.2976850792000E+00 -2.2029767795000E-01
    21  2.0000000000000E-01 -1.3453275503000E+00 -2.3577878916000E-01
    22  2.1000000000000E-01 -1.3897161816000E+00 -2.5200455344000E-01
    23  2.2000000000000E-01 -1.4306844291000E+00 -2.6903640047000E-01
    24  2.3000000000000E-01 -1.4680697943000E+00 -2.8693548714000E-01
    25  2.4000000000000E-01 -1.5017148892000E+00 -3.0576195894000E-01
    26  2.5000000000000E-01 -1.5314685631000E+00 -3.2557415998000E-01
    27  2.6000000000000E-01 -1.5571870658000E+00 -3.4642780927000E-01
    28  2.7000000000000E-01 -1.5787352597000E+00 -3.6837513654000E-01
    29  2.8000000000000E-01 -1.5959878429000E+00 -3.9146400429000E-01
    30  2.9000000000000E-01 -1.6088305931000E+00 -4.1573701169000E-01
    31  3.0000000000000E-01 -1.6171616083000E+00 -4.4123059698000E-01
    32  3.1000000000000E-01 -1.6208925336000E+00 -4.6797414784000E-01
    33  3.2000000000000E-01 -1.6199497555000E+00 -4.9598913476000E-01
    34  3.3000000000000E-01 -1.6142755706000E+00 -5.2528826178000E-01
    35  3.4000000000000E-01 -1.6038292855000E+00 -5.5587466866000E-01
    36  3.5000000000000E-01 -1.5885882404000E+00 -5.8774118911000E-01
    37  3.6000000000000E-01 -1.5685487861000E+00 -6.2086964621000E-01
    38  3.7000000000000E-01 -1.5437271298000E+00 -6.5523024530000E-01
    39  3.8000000000000E-01 -1.5141600735000E+00 -6.9078104926000E-01
    40  3.9000000000000E-01 -1.4799056830000E+00 -7.2746750872000E-01
    41  4.0000000000000E-01 -1.4410437678000E+00 -7.6522213452000E-01
    42  4.1000000000000E-01 -1.3976762490000E+00 -8.0396425687000E-01
    43  4.2000000000000E-01 -1.3499273790000E+00 -8.4359989820000E-01
    44  4.3000000000000E-01 -1.2979438022000E+00 -8.8402176724000E-01
    45  4.4000000000000E-01 -1.2418944537000E+00 -9.2510937741000E-01
    46  4.5000000000000E-01 -1.1819702893000E+00 -9.6672929286000E-01
    47  4.6000000000000E-01 -1.1183838452000E+00 -1.0087355049000E+00
    48  4.7000000000000E-01 -1.0513686241000E+00 -1.0509699393000E+00
    49  4.8000000000000E-01 -9.8117831107000E-01 -1.0932630908000E+00
    50  4.9000000000000E-01 -9.0808582055000E-01 -1.1354347910000E+00
    51  5.0000000000000E-01 -8.3238215206000E-01 -1.1772951097000E+00
    52  5.1000000000000E-01 -7.5437511927000E-01 -1.2186453548000E+00
    53  5.2000000000000E-01 -6.7438790116000E-01 -1.2592792043000E+00
    54  5.3000000000000E-01 -5.9275737897000E-01 -1.2989839981000E+00
    55  5.4000000000000E-01 -5.0983254731000E-01 -1.3375419560000E+00
    56  5.5000000000000E-01 -4.2597241649000E-01 -1.3747317966000E+00
    57  5.6000000000000E-01 -3.4154426602000E-01 -1.4103300576000E+00
    58  5.7000000000000E-01 -2.5692133340000E-01 -1.4441128571000E+00
    59  5.8000000000000E-01 -1.7248084841000E-01 -1.4758573658000E+00
    60  5.9000000000000E-01 -8.8601477491000E-02 -1.5053437310000E+00
    61  6.0000000000000E-01 -5.6615295689000E-03 -1.5323563941000E+00
    62  6.1000000000000E-01  7.5964195063000E-02 -1.5566864419000E+00
    63  6.2000000000000E-01  1.5590581492000E-01 -1.5781326072000E+00
    64  6.3000000000000E-01  2.3380152175000E-01 -1.5965035863000E+00
    65  6.4000000000000E-01  3.0929971107000E-01 -1.6116195582000E+00
    66  6.5000000000000E-01  3.8206078265000E-01 -1.6233134462000E+00
    67  6.6000000000000E-01  4.5176018615000E-01 -1.6314330878000E+00
    68  6.7000000000000E-01  5.1809032247000E-01 -1.6358425296000E+00
    69  6.8000000000000E-01  5.8076235513000E-01 -1.6364232395000E+00
    70  6.9000000000000E-01  6.3950798647000E-01 -1.6330752797000E+00
    71  7.0000000000000E-01  6.9408236066000E-01 -1.6257192605000E+00
    72  7.1000000000000E-01  7.4426483647000E-01 -1.6142967296000E+00
    73  7.2000000000000E-01  7.8986067016000E-01 -1.5987711985000E+00
    74  7.3000000000000E-01  8.3070243078000E-01 -1.5791289479000E+00
    75  7.4000000000000E-01  8.6665103886000E-01 -1.5553795418000E+00
    76  7.5000000000000E-01  8.9759699447000E-01 -1.5275564378000E+00
    77  7.6000000000000E-01  9.2346125537000E-01 -1.4957173144000E+00
    78  7.7000000000000E-01  9.4419535446000E-01 -1.4599438618000E+00
    79  7.8000000000000E-01  9.5978191640000E-01 -1.4203418073000E+00
    80  7.9000000000000E-01  9.7023476650000E-01 -1.3770406341000E+00
    81  8.0000000000000E-01  9.7559881571000E-01 -1.3301931172000E+00
    82  8.1000000000000E-01  9.7594972330000E-01 -1.2799746829000E+00
    83  8.2000000000000E-01  9.7139334052000E-01 -1.2265825933000E+00
    84  8.3000000000000E-01  9.6206494093000E-01 -1.1702349653000E+00
    85  8.4000000000000E-01  9.4812824500000E-01 -1.1111696300000E+00
    86  8.5000000000000E-01  9.2977424836000E-01 -1.0496428434000E+00
    87  8.6000000000000E-01  9.0721986521000E-01 -9.8592785947000E-01
    88  8.7000000000000E-01  8.8070640001000E-01 -9.2031337823000E-01
    89  8.8000000000000E-01  8.5049786225000E-01 -8.5310188296000E-01
    90  8.9000000000000E-01  8.1687915003000E-01 -7.8460789707000E-01
    91  9.0000000000000E-01  7.8015412708000E-01 -7.1515618238000E-01
    92  9.1000000000000E-01  7.4064280867000E-01 -6.4507861532000E-01
    93  9.2000000000000E-01  6.9867772713000E-01 -5.7470999142000E-01
    94  9.3000000000000E-01  6.5460065898000E-01 -5.0438470355000E-01
    95  9.4000000000000E-01  6.0876000817000E-01 -4.3443461938000E-01
    96  9.5000000000000E-01  5.6150816818000E-01 -3.6518695508000E-01
    97  9.6000000000000E-01  5.1319950671000E-01 -2.9696285429000E-01
    98  9.7000000000000E-01  4.6418605311000E-01 -2.3007337120000E-01
    99  9.8000000000000E-01  4.1481632000000E-01 -1.6481914363000E-01
   100  9.9000000000000E-01  3.6543238709000E-01 -1.0148795443000E-01
   101  1.0000000000000E+00  3.1636746756000E-01 -4.0352882291000E-02
   102  1.0100000000000E+00  2.6794359011000E-01  1.8329428071000E-02
   103  1.0200000000000E+00  2.2046978697000E-01  7.4320012984000E-02
   104  1.0300000000000E+00  1.7424035248000E-01  1.2739881255000E-01
   105  1.0400000000000E+00  1.2952962515000E-01  1.7736904094000E-01
   106  1.0500000000000E+00  8.6593892523000E-02  2.2405489544000E-01
   107  1.0600000000000E+00  4.5668710594000E-02  2.6730363656000E-01
   108  1.0700000000000E+00  6.9679208979000E-03  3.0698607831000E-01
   109  1.0800000000000E+00 -2.9316209721000E-02  3.4299615758000E-01
   110  1.0900000000000E+00 -6.3020506698000E-02  3.7525697031000E-01
   111  1.1000000000000E+00 -9.4004690093000E-02  4.0371497689000E-01
   112  1.1100000000000E+00 -1.2215393254000E-01  4.2834186436000E-01
   113  1.1200000000000E+00 -1.4737663928000E-01  4.4913244699000E-01
   114  1.1300000000000E+00 -1.6961235352000E-01  4.6611061896000E-01
   115  1.1400000000000E+00 -1.8882543345000E-01  4.7932369054000E-01
   116  1.1500000000000E+00 -2.0500488110000E-01  4.8884192192000E-01
   117  1.1600000000000E+00 -2.1816174129000E-01  4.9475635787000E-01
   118  1.1700000000000E+00 -2.2833811648000E-01  4.9718478743000E-01
   119  1.1800000000000E+00 -2.3559652922000E-01  4.9626328652000E-01
   120  1.1900000000000E+00 -2.4002012867000E-01  4.9214617126000E-01
   121  1.2000000000000E+00 -2.4171446660000E-01  4.8500670485000E-01
   122  1.2100000000000E+00 -2.4080682236000E-01  4.7503531566000E-01
   123  1.2200000000000E+00 -2.3743998798000E-01  4.6243533033000E-01
   124  1.2300000000000E+00 -2.3177254884000E-01  4.4742321362000E-01
   125  1.2400000000000E+00 -2.2398066617000E-01  4.3022674113000E-01
   126  1.2500000000000E+00 -2.1425053202000E-01  4.1108120561000E-01
   127  1.2600000000000E+00 -2.0277950923000E-01  3.9023071652000E-01
   128  1.2700000000000E+00 -1.8977400637000E-01  3.6792159943000E-01
   129  1.2800000000000E+00 -1.7544546369000E-01  3.4440286656000E-01
   130  1.2900000000000E+00 -1.6001246929000E-01  3.1992840250000E-01
   131  1.3000000000000E+00 -1.4369206549000E-01  2.9474377327000E-01
   132  1.3100000000000E+00 -1.2670267008000E-01  2.6909419239000E-01
   133  1.3200000000000E+00 -1.0926427735000E-01  2.4322358517000E-01
   134  1.3300000000000E+00 -9.1585684095000E-02  2.1735907623000E-01
   135  1.3400000000000E+00 -7.3875576850000E-02  1.9172645493000E-01
   136  1.3500000000000E+00 -5.6334263225000E-02  1.6653942388000E-01
   137  1.3600000000000E+00 -3.9146153256000E-02  1.4199207997000E-01
   138  1.3700000000000E+00 -2.2495908916000E-02  1.1827782294000E-01
   139  1.3800000000000E+00 -6.5435153726000E-03  9.5561009117000E-02
   140  1.3900000000000E+00  8.5605239042000E-03  7.3995133777000E-02
   141  1.4000000000000E+00  2.2674739342000E-02  5.3722822304000E-02
   142  1.4100000000000E+00  3.5689430752000E-02  3.4851894266000E-02
   143  1.4200000000000E+00  4.7494278860000E-02  1.7490372999000E-02
   144  1.4300000000000E+00  5.8012381595000E-02  1.7103012707000E-03
   145  1.4400000000000E+00  6.7178999891000E-02 -1.2429161374000E-02
   146  1.4500000000000E+00  7.4944125699000E-02 -2.4884789778000E-02
   147  1.4600000000000E+00  8.1291735754000E-02 -3.5648403129000E-02
   148  1.4700000000000E+00  8.6202999980000E-02 -4.4709496401000E-02
   149  1.4800000000000E+00  8.9703262385000E-02 -5.2102412579000E-02
   150  1.4900000000000E+00  9.1816735200000E-02 -5.7860629300000E-02
   151  1.5000000000000E+00  9.2597536643000E-02 -6.2047734810000E-02
   152  1.5100000000000E+00  9.2113254489000E-02 -6.4740666961000E-02
   153  1.5200000000000E+00  9.0445338965000E-02 -6.6030440320000E-02
   154  1.5300000000000E+00  8.7698051710000E-02 -6.6029995542000E-02
   155  1.5400000000000E+00  8.3978300235000E-02 -6.4855547041000E-02
   156  1.5500000000000E+00  7.9417150674000E-02 -6.2645744938000E-02
   157  1.5600000000000E+00  7.4144895303000E-02 -5.9539419773000E-02
   158  1.5700000000000E+00  6.8307386257000E-02 -5.5688985018000E-02
   159  1.5800000000000E+00  6.2051465743000E-02 -5.1248601858000E-02
   160  1.5900000000000E+00  5.5528012377000E-02 -4.6374937418000E-02
   161  1.6000000000000E+00  4.8888120552000E-02 -4.1225241798000E-02
   162  1.6100000000000E+00  4.2278640050000E-02 -3.5951587184000E-02
   163  1.6200000000000E+00  3.5840216946000E-02 -3.0700087082000E-02
   164  1.6300000000000E+00  2.9704927992000E-02 -2.5607884051000E-02
   165  1.6400000000000E+00  2.3987650934000E-02 -2.0795421432000E-02
   166  1.6500000000000E+00  1.8793336169000E-02 -1.6373200347000E-02
   167  1.6600000000000E+00  1.4196649715000E-02 -1.2422542282000E-02
   168  1.6700000000000E+00  1.0262047003000E-02 -9.0148050908000E-03
   169  1.6800000000000E+00  7.0124306856000E-03 -6.1816449299000E-03
   170  1.6900000000000E+00  4.4588224424000E-03 -3.9433443742000E-03
   171  1.7000000000000E+00  2.5661114128000E-03 -2.2764002190000E-03
   172  1.7100000000000E+00  1.2821764937000E-03 -1.1412286606000E-03
   173  1.7200000000000E+00  5.1515721395000E-04 -4.6063791798000E-04
   174  1.7300000000000E+00  1.3819112535000E-04 -1.2500409455000E-04
   175  1.7400000000000E+00  2.7251351286000E-05 -2.5882578909000E-05
   176  1.7500000000000E+00  1.0867405846000E-05 -1.0574833444000E-05
   177  1.7600000000000E+00 -3.6451782770000E-06  2.9281306236000E-06
   178  1.7700000000000E+00 -1.3340201323000E-06  1.2384991197000E-06
   179  1.7800000000000E+00 -1.6625261390000E-06  1.5434828229000E-06
   180  1.7900000000000E+00  0.0000000000000E+00  0.0000000000000E+00
   181  1.8000000000000E+00  0.0000000000000E+00  0.0000000000000E+00
   182  1.8100000000000E+00  0.0000000000000E+00  0.0000000000000E+00
   183  1.8200000000000E+00  0.0000000000000E+00  0.0000000000000E+00
   184  1.8300000000000E+00  0.0000000000000E+00  0.0000000000000E+00
   185  1.8400000000000E+00  0.0000000000000E+00  0.0000000000000E+00
   186  1.8500000000000E+00  0.0000000000000E+00  0.0000000000000E+00
   187  1.8600000000000E+00  0.0000000000000E+00  0.0000000000000E+00
   188  1.8700000000000E+00  0.0000000000000E+00  0.0000000000000E+00
   189  1.8800000000000E+00  0.0000000000000E+00  0.0000000000000E+00
   190  1.8900000000000E+00  0.0000000000000E+00  0.0000000000000E+00
   191  1.9000000000000E+00  0.0000000000000E+00  0.0000000000000E+00
   192  1.9100000000000E+00  0.0000000000000E+00  0.0000000000000E+00
   193  1.9200000000000E+00  0.0000000000000E+00  0.0000000000000E+00
   194  1.9300000000000E+00  0.0000000000000E+00  0.0000000000000E+00
   195  1.9400000000000E+00  0.0000000000000E+00  0.0000000000000E+00
   196  1.9500000000000E+00  0.0000000000000E+00  0.0000000000000E+00
   197  1.9600000000000E+00  0.0000000000000E+00  0.0000000000000E+00
   198  1.9700000000000E+00  0.0000000000000E+00  0.0000000000000E+00
   199  1.9800000000000E+00  0.0000000000000E+00  0.0000000000000E+00
   200  1.9900000000000E+00  0.0000000000000E+00  0.0000000000000E+00
   201  2.0000000000000E+00  0.0000000000000E+00  0.0000000000000E+00
   202  2.0100000000000E+00  0.0000000000000E+00  0.0000000000000E+00
   203  2.0200000000000E+00  0.0000000000000E+00  0.0000000000000E+00
   204  2.0300000000000E+00  0.0000000000000E+00  0.0000000000000E+00
   205  2.0400000000000E+00  0.0000000000000E+00  0.0000000000000E+00
   206  2.0500000000000E+00  0.0000000000000E+00  0.0000000000000E+00
   207  2.0600000000000E+00  0.0000000000000E+00  0.0000000000000E+00
   208  2.0700000000000E+00  0.0000000000000E+00  0.0000000000000E+00
   209  2.0800000000000E+00  0.0000000000000E+00  0.0000000000000E+00
   210  2.0900000000000E+00  0.0000000000000E+00  0.0000000000000E+00
   211  2.1000000000000E+00  0.0000000000000E+00  0.0000000000000E+00
   212  2.1100000000000E+00  0.0000000000000E+00  0.0000000000000E+00
   213  2.1200000000000E+00  0.0000000000000E+00  0.0000000000000E+00
   214  2.1300000000000E+00  0.0000000000000E+00  0.0000000000000E+00
   215  2.1400000000000E+00  0.0000000000000E+00  0.0000000000000E+00
   216  2.1500000000000E+00  0.0000000000000E+00  0.0000000000000E+00
   217  2.1600000000000E+00  0.0000000000000E+00  0.0000000000000E+00
   218  2.1700000000000E+00  0.0000000000000E+00  0.0000000000000E+00
   219  2.1800000000000E+00  0.0000000000000E+00  0.0000000000000E+00
   220  2.1900000000000E+00  0.0000000000000E+00  0.0000000000000E+00
   221  2.2000000000000E+00  0.0000000000000E+00  0.0000000000000E+00
   222  2.2100000000000E+00  0.0000000000000E+00  0.0000000000000E+00
   223  2.2200000000000E+00  0.0000000000000E+00  0.0000000000000E+00
   224  2.2300000000000E+00  0.0000000000000E+00  0.0000000000000E+00
   225  2.2400000000000E+00  0.0000000000000E+00  0.0000000000000E+00
   226  2.2500000000000E+00  0.0000000000000E+00  0.0000000000000E+00
   227  2.2600000000000E+00  0.0000000000000E+00  0.0000000000000E+00
   228  2.2700000000000E+00  0.0000000000000E+00  0.0000000000000E+00
   229  2.2800000000000E+00  0.0000000000000E+00  0.0000000000000E+00
   230  2.2900000000000E+00  0.0000000000000E+00  0.0000000000000E+00
   231  2.3000000000000E+00  0.0000000000000E+00  0.0000000000000E+00
   232  2.3100000000000E+00  0.0000000000000E+00  0.0000000000000E+00
   233  2.3200000000000E+00  0.0000000000000E+00  0.0000000000000E+00
   234  2.3300000000000E+00  0.0000000000000E+00  0.0000000000000E+00
   235  2.3400000000000E+00  0.0000000000000E+00  0.0000000000000E+00
   236  2.3500000000000E+00  0.0000000000000E+00  0.0000000000000E+00
   237  2.3600000000000E+00  0.0000000000000E+00  0.0000000000000E+00
   238  2.3700000000000E+00  0.0000000000000E+00  0.0000000000000E+00
   239  2.3800000000000E+00  0.0000000000000E+00  0.0000000000000E+00
   240  2.3900000000000E+00  0.0000000000000E+00  0.0000000000000E+00
   241  2.4000000000000E+00  0.0000000000000E+00  0.0000000000000E+00
   242  2.4100000000000E+00  0.0000000000000E+00  0.0000000000000E+00
   243  2.4200000000000E+00  0.0000000000000E+00  0.0000000000000E+00
   244  2.4300000000000E+00  0.0000000000000E+00  0.0000000000000E+00
   245  2.4400000000000E+00  0.0000000000000E+00  0.0000000000000E+00
   246  2.4500000000000E+00  0.0000000000000E+00  0.0000000000000E+00
   247  2.4600000000000E+00  0.0000000000000E+00  0.0000000000000E+00
   248  2.4700000000000E+00  0.0000000000000E+00  0.0000000000000E+00
   249  2.4800000000000E+00  0.0000000000000E+00  0.0000000000000E+00
   250  2.4900000000000E+00  0.0000000000000E+00  0.0000000000000E+00
   251  2.5000000000000E+00  0.0000000000000E+00  0.0000000000000E+00
   252  2.5100000000000E+00  0.0000000000000E+00  0.0000000000000E+00
   253  2.5200000000000E+00  0.0000000000000E+00  0.0000000000000E+00
   254  2.5300000000000E+00  0.0000000000000E+00  0.0000000000000E+00
   255  2.5400000000000E+00  0.0000000000000E+00  0.0000000000000E+00
   256  2.5500000000000E+00  0.0000000000000E+00  0.0000000000000E+00
   257  2.5600000000000E+00  0.0000000000000E+00  0.0000000000000E+00
   258  2.5700000000000E+00  0.0000000000000E+00  0.0000000000000E+00
   259  2.5800000000000E+00  0.0000000000000E+00  0.0000000000000E+00
   260  2.5900000000000E+00  0.0000000000000E+00  0.0000000000000E+00
   261  2.6000000000000E+00  0.0000000000000E+00  0.0000000000000E+00
   262  2.6100000000000E+00  0.0000000000000E+00  0.0000000000000E+00
   263  2.6200000000000E+00  0.0000000000000E+00  0.0000000000000E+00
   264  2.6300000000000E+00  0.0000000000000E+00  0.0000000000000E+00
   265  2.6400000000000E+00  0.0000000000000E+00  0.0000000000000E+00
   266  2.6500000000000E+00  0.0000000000000E+00  0.0000000000000E+00
   267  2.6600000000000E+00  0.0000000000000E+00  0.0000000000000E+00
   268  2.6700000000000E+00  0.0000000000000E+00  0.0000000000000E+00
   269  2.6800000000000E+00  0.0000000000000E+00  0.0000000000000E+00
   270  2.6900000000000E+00  0.0000000000000E+00  0.0000000000000E+00
   271  2.7000000000000E+00  0.0000000000000E+00  0.0000000000000E+00
   272  2.7100000000000E+00  0.0000000000000E+00  0.0000000000000E+00
   273  2.7200000000000E+00  0.0000000000000E+00  0.0000000000000E+00
   274  2.7300000000000E+00  0.0000000000000E+00  0.0000000000000E+00
   275  2.7400000000000E+00  0.0000000000000E+00  0.0000000000000E+00
   276  2.7500000000000E+00  0.0000000000000E+00  0.0000000000000E+00
   277  2.7600000000000E+00  0.0000000000000E+00  0.0000000000000E+00
   278  2.7700000000000E+00  0.0000000000000E+00  0.0000000000000E+00
   279  2.7800000000000E+00  0.0000000000000E+00  0.0000000000000E+00
   280  2.7900000000000E+00  0.0000000000000E+00  0.0000000000000E+00
   281  2.8000000000000E+00  0.0000000000000E+00  0.0000000000000E+00
   282  2.8100000000000E+00  0.0000000000000E+00  0.0000000000000E+00
   283  2.8200000000000E+00  0.0000000000000E+00  0.0000000000000E+00
   284  2.8300000000000E+00  0.0000000000000E+00  0.0000000000000E+00
   285  2.8400000000000E+00  0.0000000000000E+00  0.0000000000000E+00
   286  2.8500000000000E+00  0.0000000000000E+00  0.0000000000000E+00
   287  2.8600000000000E+00  0.0000000000000E+00  0.0000000000000E+00
   288  2.8700000000000E+00  0.0000000000000E+00  0.0000000000000E+00
   289  2.8800000000000E+00  0.0000000000000E+00  0.0000000000000E+00
   290  2.8900000000000E+00  0.0000000000000E+00  0.0000000000000E+00
   291  2.9000000000000E+00  0.0000000000000E+00  0.0000000000000E+00
   292  2.9100000000000E+00  0.0000000000000E+00  0.0000000000000E+00
   293  2.9200000000000E+00  0.0000000000000E+00  0.0000000000000E+00
   294  2.9300000000000E+00  0.0000000000000E+00  0.0000000000000E+00
   295  2.9400000000000E+00  0.0000000000000E+00  0.0000000000000E+00
   296  2.9500000000000E+00  0.0000000000000E+00  0.0000000000000E+00
   297  2.9600000000000E+00  0.0000000000000E+00  0.0000000000000E+00
   298  2.9700000000000E+00  0.0000000000000E+00  0.0000000000000E+00
   299  2.9800000000000E+00  0.0000000000000E+00  0.0000000000000E+00
   300  2.9900000000000E+00  0.0000000000000E+00  0.0000000000000E+00
   301  3.0000000000000E+00  0.0000000000000E+00  0.0000000000000E+00
   302  3.0100000000000E+00  0.0000000000000E+00  0.0000000000000E+00
   303  3.0200000000000E+00  0.0000000000000E+00  0.0000000000000E+00
   304  3.0300000000000E+00  0.0000000000000E+00  0.0000000000000E+00
   305  3.0400000000000E+00  0.0000000000000E+00  0.0000000000000E+00
   306  3.0500000000000E+00  0.0000000000000E+00  0.0000000000000E+00
   307  3.0600000000000E+00  0.0000000000000E+00  0.0000000000000E+00
   308  3.0700000000000E+00  0.0000000000000E+00  0.0000000000000E+00
   309  3.0800000000000E+00  0.0000000000000E+00  0.0000000000000E+00
   310  3.0900000000000E+00  0.0000000000000E+00  0.0000000000000E+00
   311  3.1000000000000E+00  0.0000000000000E+00  0.0000000000000E+00
   312  3.1100000000000E+00  0.0000000000000E+00  0.0000000000000E+00
   313  3.1200000000000E+00  0.0000000000000E+00  0.0000000000000E+00
   314  3.1300000000000E+00  0.0000000000000E+00  0.0000000000000E+00
   315  3.1400000000000E+00  0.0000000000000E+00  0.0000000000000E+00
   316  3.1500000000000E+00  0.0000000000000E+00  0.0000000000000E+00
   317  3.1600000000000E+00  0.0000000000000E+00  0.0000000000000E+00
   318  3.1700000000000E+00  0.0000000000000E+00  0.0000000000000E+00
   319  3.1800000000000E+00  0.0000000000000E+00  0.0000000000000E+00
   320  3.1900000000000E+00  0.0000000000000E+00  0.0000000000000E+00
   321  3.2000000000000E+00  0.0000000000000E+00  0.0000000000000E+00
   322  3.2100000000000E+00  0.0000000000000E+00  0.0000000000000E+00
   323  3.2200000000000E+00  0.0000000000000E+00  0.0000000000000E+00
   324  3.2300000000000E+00  0.0000000000000E+00  0.0000000000000E+00
   325  3.2400000000000E+00  0.0000000000000E+00  0.0000000000000E+00
   326  3.2500000000000E+00  0.0000000000000E+00  0.0000000000000E+00
   327  3.2600000000000E+00  0.0000000000000E+00  0.0000000000000E+00
   328  3.2700000000000E+00  0.0000000000000E+00  0.0000000000000E+00
   329  3.2800000000000E+00  0.0000000000000E+00  0.0000000000000E+00
   330  3.2900000000000E+00  0.0000000000000E+00  0.0000000000000E+00
   331  3.3000000000000E+00  0.0000000000000E+00  0.0000000000000E+00
   332  3.3100000000000E+00  0.0000000000000E+00  0.0000000000000E+00
   333  3.3200000000000E+00  0.0000000000000E+00  0.0000000000000E+00
   334  3.3300000000000E+00  0.0000000000000E+00  0.0000000000000E+00
   335  3.3400000000000E+00  0.0000000000000E+00  0.0000000000000E+00
   336  3.3500000000000E+00  0.0000000000000E+00  0.0000000000000E+00
   337  3.3600000000000E+00  0.0000000000000E+00  0.0000000000000E+00
   338  3.3700000000000E+00  0.0000000000000E+00  0.0000000000000E+00
   339  3.3800000000000E+00  0.0000000000000E+00  0.0000000000000E+00
   340  3.3900000000000E+00  0.0000000000000E+00  0.0000000000000E+00
   341  3.4000000000000E+00  0.0000000000000E+00  0.0000000000000E+00
   342  3.4100000000000E+00  0.0000000000000E+00  0.0000000000000E+00
   343  3.4200000000000E+00  0.0000000000000E+00  0.0000000000000E+00
   344  3.4300000000000E+00  0.0000000000000E+00  0.0000000000000E+00
   345  3.4400000000000E+00  0.0000000000000E+00  0.0000000000000E+00
   346  3.4500000000000E+00  0.0000000000000E+00  0.0000000000000E+00
   347  3.4600000000000E+00  0.0000000000000E+00  0.0000000000000E+00
   348  3.4700000000000E+00  0.0000000000000E+00  0.0000000000000E+00
   349  3.4800000000000E+00  0.0000000000000E+00  0.0000000000000E+00
   350  3.4900000000000E+00  0.0000000000000E+00  0.0000000000000E+00
   351  3.5000000000000E+00  0.0000000000000E+00  0.0000000000000E+00
   352  3.5100000000000E+00  0.0000000000000E+00  0.0000000000000E+00
   353  3.5200000000000E+00  0.0000000000000E+00  0.0000000000000E+00
   354  3.5300000000000E+00  0.0000000000000E+00  0.0000000000000E+00
   355  3.5400000000000E+00  0.0000000000000E+00  0.0000000000000E+00
   356  3.5500000000000E+00  0.0000000000000E+00  0.0000000000000E+00
   357  3.5600000000000E+00  0.0000000000000E+00  0.0000000000000E+00
   358  3.5700000000000E+00  0.0000000000000E+00  0.0000000000000E+00
   359  3.5800000000000E+00  0.0000000000000E+00  0.0000000000000E+00
   360  3.5900000000000E+00  0.0000000000000E+00  0.0000000000000E+00
   361  3.6000000000000E+00  0.0000000000000E+00  0.0000000000000E+00
   362  3.6100000000000E+00  0.0000000000000E+00  0.0000000000000E+00
   363  3.6200000000000E+00  0.0000000000000E+00  0.0000000000000E+00
   364  3.6300000000000E+00  0.0000000000000E+00  0.0000000000000E+00
   365  3.6400000000000E+00  0.0000000000000E+00  0.0000000000000E+00
   366  3.6500000000000E+00  0.0000000000000E+00  0.0000000000000E+00
   367  3.6600000000000E+00  0.0000000000000E+00  0.0000000000000E+00
   368  3.6700000000000E+00  0.0000000000000E+00  0.0000000000000E+00
   369  3.6800000000000E+00  0.0000000000000E+00  0.0000000000000E+00
   370  3.6900000000000E+00  0.0000000000000E+00  0.0000000000000E+00
   371  3.7000000000000E+00  0.0000000000000E+00  0.0000000000000E+00
   372  3.7100000000000E+00  0.0000000000000E+00  0.0000000000000E+00
   373  3.7200000000000E+00  0.0000000000000E+00  0.0000000000000E+00
   374  3.7300000000000E+00  0.0000000000000E+00  0.0000000000000E+00
   375  3.7400000000000E+00  0.0000000000000E+00  0.0000000000000E+00
   376  3.7500000000000E+00  0.0000000000000E+00  0.0000000000000E+00
   377  3.7600000000000E+00  0.0000000000000E+00  0.0000000000000E+00
   378  3.7700000000000E+00  0.0000000000000E+00  0.0000000000000E+00
   379  3.7800000000000E+00  0.0000000000000E+00  0.0000000000000E+00
   380  3.7900000000000E+00  0.0000000000000E+00  0.0000000000000E+00
   381  3.8000000000000E+00  0.0000000000000E+00  0.0000000000000E+00
   382  3.8100000000000E+00  0.0000000000000E+00  0.0000000000000E+00
   383  3.8200000000000E+00  0.0000000000000E+00  0.0000000000000E+00
   384  3.8300000000000E+00  0.0000000000000E+00  0.0000000000000E+00
   385  3.8400000000000E+00  0.0000000000000E+00  0.0000000000000E+00
   386  3.8500000000000E+00  0.0000000000000E+00  0.0000000000000E+00
   387  3.8600000000000E+00  0.0000000000000E+00  0.0000000000000E+00
   388  3.8700000000000E+00  0.0000000000000E+00  0.0000000000000E+00
   389  3.8800000000000E+00  0.0000000000000E+00  0.0000000000000E+00
   390  3.8900000000000E+00  0.0000000000000E+00  0.0000000000000E+00
   391  3.9000000000000E+00  0.0000000000000E+00  0.0000000000000E+00
   392  3.9100000000000E+00  0.0000000000000E+00  0.0000000000000E+00
   393  3.9200000000000E+00  0.0000000000000E+00  0.0000000000000E+00
   394  3.9300000000000E+00  0.0000000000000E+00  0.0000000000000E+00
   395  3.9400000000000E+00  0.0000000000000E+00  0.0000000000000E+00
   396  3.9500000000000E+00  0.0000000000000E+00  0.0000000000000E+00
   397  3.9600000000000E+00  0.0000000000000E+00  0.0000000000000E+00
   398  3.9700000000000E+00  0.0000000000000E+00  0.0000000000000E+00
   399  3.9800000000000E+00  0.0000000000000E+00  0.0000000000000E+00
   400  3.9900000000000E+00  0.0000000000000E+00  0.0000000000000E+00
   401  4.0000000000000E+00  0.0000000000000E+00  0.0000000000000E+00
   402  4.0100000000000E+00  0.0000000000000E+00  0.0000000000000E+00
   403  4.0200000000000E+00  0.0000000000000E+00  0.0000000000000E+00
   404  4.0300000000000E+00  0.0000000000000E+00  0.0000000000000E+00
   405  4.0400000000000E+00  0.0000000000000E+00  0.0000000000000E+00
   406  4.0500000000000E+00  0.0000000000000E+00  0.0000000000000E+00
   407  4.0600000000000E+00  0.0000000000000E+00  0.0000000000000E+00
   408  4.0700000000000E+00  0.0000000000000E+00  0.0000000000000E+00
   409  4.0800000000000E+00  0.0000000000000E+00  0.0000000000000E+00
   410  4.0900000000000E+00  0.0000000000000E+00  0.0000000000000E+00
   411  4.1000000000000E+00  0.0000000000000E+00  0.0000000000000E+00
   412  4.1100000000000E+00  0.0000000000000E+00  0.0000000000000E+00
   413  4.1200000000000E+00  0.0000000000000E+00  0.0000000000000E+00
   414  4.1300000000000E+00  0.0000000000000E+00  0.0000000000000E+00
   415  4.1400000000000E+00  0.0000000000000E+00  0.0000000000000E+00
   416  4.1500000000000E+00  0.0000000000000E+00  0.0000000000000E+00
   417  4.1600000000000E+00  0.0000000000000E+00  0.0000000000000E+00
   418  4.1700000000000E+00  0.0000000000000E+00  0.0000000000000E+00
   419  4.1800000000000E+00  0.0000000000000E+00  0.0000000000000E+00
   420  4.1900000000000E+00  0.0000000000000E+00  0.0000000000000E+00
   421  4.2000000000000E+00  0.0000000000000E+00  0.0000000000000E+00
   422  4.2100000000000E+00  0.0000000000000E+00  0.0000000000000E+00
   423  4.2200000000000E+00  0.0000000000000E+00  0.0000000000000E+00