Be   ONCVPSP-2.1.1   r_core=    2.34873 1.89489
    4.0000   4.0000   150105   zatom,zion,pspd
    8   11   1   4   600   0   pspcod,pspxc,lmax,lloc,mmax,r2well
    5.99000000   0.00000000   0.00000000   rchrg fchrg qchrg
    2   2   0   0   0   nproj
    1   1   extension_switch
       0                        -8.9050043865000E+00 -2.3940066666000E+00
     1  0.0000000000000E+00  0.0000000000000E+00  0.0000000000000E+00
     2  1.0000000000000E-02  7.6779154041000E-02  4.8123043839000E-02
     3  2.0000000000000E-02  1.5336386502000E-01  9.5985974067000E-02
     4  3.0000000000000E-02  2.2956044783000E-01  1.4333006175000E-01
     5  4.0000000000000E-02  3.0517672958000E-01  1.8989933898000E-01
     6  5.0000000000000E-02  3.8002279620000E-01  2.3544195861000E-01
     7  6.0000000000000E-02  4.5391172800000E-01  2.7971152919000E-01
     8  7.0000000000000E-02  5.2666032024000E-01  3.2246841714000E-01
     9  8.0000000000000E-02  5.9808978538000E-01  3.6348100831000E-01
    10  9.0000000000000E-02  6.6802643338000E-01  4.0252692139000E-01
    11  1.0000000000000E-01  7.3630232694000E-01  4.3939416603000E-01
    12  1.1000000000000E-01  8.0275590825000E-01  4.7388223867000E-01
    13  1.2000000000000E-01  8.6723259443000E-01  5.0580314976000E-01
    14  1.3000000000000E-01  9.2958533868000E-01  5.3498237620000E-01
    15  1.4000000000000E-01  9.8967515461000E-01  5.6125973365000E-01
    16  1.5000000000000E-01  1.0473716012000E+00  5.8449016346000E-01
    17  1.6000000000000E-01  1.1025532262000E+00  6.0454442995000E-01
    18  1.7000000000000E-01  1.1551079659000E+00  6.2130972400000E-01
    19  1.8000000000000E-01  1.2049335000000E+00  6.3469016970000E-01
    20  1.9000000000000E-01  1.2519375593000E+00  6.4460723167000E-01
    21  2.0000000000000E-01  1.2960381850000E+00  6.5100002005000E-01
    22  2.1000000000000E-01  1.3371639406000E+00  6.5382549338000E-01
    23  2.2000000000000E-01  1.3752540719000E+00  6.5305855677000E-01
    24  2.3000000000000E-01  1.4102586189000E+00  6.4869205685000E-01
    25  2.4000000000000E-01  1.4421384759000E+00  6.4073667298000E-01
    26  2.5000000000000E-01  1.4708654027000E+00  6.2922070675000E-01
    27  2.6000000000000E-01  1.4964219851000E+00  6.1418977092000E-01
    28  2.7000000000000E-01  1.5188015473000E+00  5.9570638059000E-01
    29  2.8000000000000E-01  1.5380080149000E+00  5.7384944999000E-01
    30  2.9000000000000E-01  1.5540557319000E+00  5.4871369806000E-01
    31  3.0000000000000E-01  1.5669692321000E+00  5.2040896698000E-01
    32  3.1000000000000E-01  1.5767829655000E+00  4.8905945850000E-01
    33  3.2000000000000E-01  1.5835409845000E+00  4.5480289488000E-01
    34  3.3000000000000E-01  1.5872965894000E+00  4.1778960949000E-01
    35  3.4000000000000E-01  1.5881119325000E+00  3.7818155957000E-01
    36  3.5000000000000E-01  1.5860575987000E+00  3.3615131553000E-01
    37  3.6000000000000E-01  1.5812121334000E+00  2.9188093968000E-01
    38  3.7000000000000E-01  1.5736615638000E+00  2.4556088640000E-01
    39  3.8000000000000E-01  1.5634988796000E+00  1.9738882634000E-01
    40  3.9000000000000E-01  1.5508234852000E+00  1.4756842756000E-01
    41  4.0000000000000E-01  1.5357406475000E+00  9.6308159682000E-02
    42  4.1000000000000E-01  1.5183609147000E+00  4.3820050938000E-02
    43  4.2000000000000E-01  1.4987995236000E+00 -9.6815535851000E-03
    44  4.3000000000000E-01  1.4771757957000E+00 -6.3981232273000E-02
    45  4.4000000000000E-01  1.4536125269000E+00 -1.1886371837000E-01
    46  4.5000000000000E-01  1.4282353716000E+00 -1.7411511501000E-01
    47  4.6000000000000E-01  1.4011722269000E+00 -2.2952408616000E-01
    48  4.7000000000000E-01  1.3725526193000E+00 -2.8488301574000E-01
    49  4.8000000000000E-01  1.3425071081000E+00 -3.3998910566000E-01
    50  4.9000000000000E-01  1.3111666726000E+00 -3.9464548172000E-01
    51  5.0000000000000E-01  1.2786621069000E+00 -4.4866225321000E-01
    52  5.1000000000000E-01  1.2451234838000E+00 -5.0185740658000E-01
    53  5.2000000000000E-01  1.2106796286000E+00 -5.5405765963000E-01
    54  5.3000000000000E-01  1.1754574518000E+00 -6.0509955145000E-01
    55  5.4000000000000E-01  1.1395816100000E+00 -6.5482987678000E-01
    56  5.5000000000000E-01  1.1031738980000E+00 -7.0310660431000E-01
    57  5.6000000000000E-01  1.0663528275000E+00 -7.4979940810000E-01
    58  5.7000000000000E-01  1.0292332320000E+00 -7.9479013474000E-01
    59  5.8000000000000E-01  9.9192579319000E-01 -8.3797336359000E-01
    60  5.9000000000000E-01  9.5453674736000E-01 -8.7925663558000E-01
    61  6.0000000000000E-01  9.1716753783000E-01 -9.1856073596000E-01
    62  6.1000000000000E-01  8.7991442845000E-01 -9.5581999912000E-01
    63  6.2000000000000E-01  8.4286848447000E-01 -9.9098202325000E-01
    64  6.3000000000000E-01  8.0611499899000E-01 -1.0240081635000E+00
    65  6.4000000000000E-01  7.6973358654000E-01 -1.0548730175000E+00
    66  6.5000000000000E-01  7.3379804129000E-01 -1.0835642507000E+00
    67  6.6000000000000E-01  6.9837595652000E-01 -1.1100826308000E+00
    68  6.7000000000000E-01  6.6352892285000E-01 -1.1344413243000E+00
    69  6.8000000000000E-01  6.2931243834000E-01 -1.1566655280000E+00
    70  6.9000000000000E-01  5.9577586644000E-01 -1.1767919799000E+00
    71  7.0000000000000E-01  5.6296242952000E-01 -1.1948683586000E+00
    72  7.1000000000000E-01  5.3090939435000E-01 -1.2109525160000E+00
    73  7.2000000000000E-01  4.9964813926000E-01 -1.2251117586000E+00
    74  7.3000000000000E-01  4.6920430378000E-01 -1.2374220329000E+00
    75  7.4000000000000E-01  4.3959795982000E-01 -1.2479670570000E+00
    76  7.5000000000000E-01  4.1084377479000E-01 -1.2568373255000E+00
    77  7.6000000000000E-01  3.8295131693000E-01 -1.2641291648000E+00
    78  7.7000000000000E-01  3.5592529025000E-01 -1.2699436931000E+00
    79  7.8000000000000E-01  3.2976582187000E-01 -1.2743857473000E+00
    80  7.9000000000000E-01  3.0446877286000E-01 -1.2775627769000E+00
    81  8.0000000000000E-01  2.8002607045000E-01 -1.2795837080000E+00
    82  8.1000000000000E-01  2.5642605953000E-01 -1.2805577849000E+00
    83  8.2000000000000E-01  2.3365387111000E-01 -1.2805933929000E+00
    84  8.3000000000000E-01  2.1169180575000E-01 -1.2797968691000E+00
    85  8.4000000000000E-01  1.9051972970000E-01 -1.2782713055000E+00
    86  8.5000000000000E-01  1.7011548161000E-01 -1.2761153494000E+00
    87  8.6000000000000E-01  1.5045528762000E-01 -1.2734220066000E+00
    88  8.7000000000000E-01  1.3151418291000E-01 -1.2702774498000E+00
    89  8.8000000000000E-01  1.1326643743000E-01 -1.2667598397000E+00
    90  8.9000000000000E-01  9.5685983978000E-02 -1.2629381599000E+00
    91  9.0000000000000E-01  7.8746846551000E-02 -1.2588710704000E+00
    92  9.1000000000000E-01  6.2423567098000E-02 -1.2546057840000E+00
    93  9.2000000000000E-01  4.6691628825000E-02 -1.2501769675000E+00
    94  9.3000000000000E-01  3.1527874209000E-02 -1.2456056716000E+00
    95  9.4000000000000E-01  1.6910916034000E-02 -1.2408982918000E+00
    96  9.5000000000000E-01  2.8215397655000E-03 -1.2360455623000E+00
    97  9.6000000000000E-01 -1.0756910469000E-02 -1.2310216070000E+00
    98  9.7000000000000E-01 -2.3838320297000E-02 -1.2257835533000E+00
    99  9.8000000000000E-01 -3.6432911902000E-02 -1.2202689050000E+00
   100  9.9000000000000E-01 -4.8547370935000E-02 -1.2143963045000E+00
   101  1.0000000000000E+00 -6.0184356030000E-02 -1.2080642028000E+00
   102  1.0100000000000E+00 -7.1342171790000E-02 -1.2011500711000E+00
   103  1.0200000000000E+00 -8.2014459981000E-02 -1.1935096703000E+00
   104  1.0300000000000E+00 -9.2190121040000E-02 -1.1849769540000E+00
   105  1.0400000000000E+00 -1.0185264913000E-01 -1.1753629930000E+00
   106  1.0500000000000E+00 -1.1097841665000E-01 -1.1644379862000E+00
   107  1.0600000000000E+00 -1.1953642187000E-01 -1.1519320986000E+00
   108  1.0700000000000E+00 -1.2748930962000E-01 -1.1375513503000E+00
   109  1.0800000000000E+00 -1.3479551027000E-01 -1.1209990458000E+00
   110  1.0900000000000E+00 -1.4141262374000E-01 -1.1020124350000E+00
   111  1.1000000000000E+00 -1.4730353528000E-01 -1.0804046080000E+00
   112  1.1100000000000E+00 -1.5243999291000E-01 -1.0560798507000E+00
   113  1.1200000000000E+00 -1.5680517880000E-01 -1.0290445933000E+00
   114  1.1300000000000E+00 -1.6039721810000E-01 -9.9942337410000E-01
   115  1.1400000000000E+00 -1.6323252907000E-01 -9.6746029210000E-01
   116  1.1500000000000E+00 -1.6534008486000E-01 -9.3346789436000E-01
   117  1.1600000000000E+00 -1.6676026871000E-01 -8.9781494634000E-01
   118  1.1700000000000E+00 -1.6754355058000E-01 -8.6090285556000E-01
   119  1.1800000000000E+00 -1.6774387558000E-01 -8.2311704070000E-01
   120  1.1900000000000E+00 -1.6741569051000E-01 -7.8481704406000E-01
   121  1.2000000000000E+00 -1.6661359682000E-01 -7.4633601644000E-01
   122  1.2100000000000E+00 -1.6538544789000E-01 -7.0792829184000E-01
   123  1.2200000000000E+00 -1.6377522172000E-01 -6.6981001752000E-01
   124  1.2300000000000E+00 -1.6182311898000E-01 -6.3215809290000E-01
   125  1.2400000000000E+00 -1.5956205709000E-01 -5.9509074671000E-01
   126  1.2500000000000E+00 -1.5702109864000E-01 -5.5869800643000E-01
   127  1.2600000000000E+00 -1.5422676259000E-01 -5.2304924655000E-01
   128  1.2700000000000E+00 -1.5120126809000E-01 -4.8818628455000E-01
   129  1.2800000000000E+00 -1.4796495375000E-01 -4.5414045379000E-01
   130  1.2900000000000E+00 -1.4453726132000E-01 -4.2093609238000E-01
   131  1.3000000000000E+00 -1.4093572556000E-01 -3.8858929508000E-01
   132  1.3100000000000E+00 -1.3717742445000E-01 -3.5711497626000E-01
   133  1.3200000000000E+00 -1.3327932289000E-01 -3.2652625892000E-01
   134  1.3300000000000E+00 -1.2925751453000E-01 -2.9683596383000E-01
   135  1.3400000000000E+00 -1.2512813818000E-01 -2.6805706085000E-01
   136  1.3500000000000E+00 -1.2090736233000E-01 -2.4020242367000E-01
   137  1.3600000000000E+00 -1.1661064262000E-01 -2.1328544685000E-01
   138  1.3700000000000E+00 -1.1225364662000E-01 -1.8731898065000E-01
   139  1.3800000000000E+00 -1.0785162776000E-01 -1.6231573007000E-01
   140  1.3900000000000E+00 -1.0341923955000E-01 -1.3828723672000E-01
   141  1.4000000000000E+00 -9.8971413334000E-02 -1.1524461996000E-01
   142  1.4100000000000E+00 -9.4521777171000E-02 -9.3196795699000E-02
   143  1.4200000000000E+00 -9.0084052913000E-02 -7.2151628085000E-02
   144  1.4300000000000E+00 -8.5671285978000E-02 -5.2115126896000E-02
   145  1.4400000000000E+00 -8.1295524881000E-02 -3.3090576982000E-02
   146  1.4500000000000E+00 -7.6969091726000E-02 -1.5080635624000E-02
   147  1.4600000000000E+00 -7.2702424272000E-02  1.9163031934000E-03
   148  1.4700000000000E+00 -6.8506331811000E-02  1.7902372279000E-02
   149  1.4800000000000E+00 -6.4390223103000E-02  3.2883204698000E-02
   150  1.4900000000000E+00 -6.0363014798000E-02  4.6866353967000E-02
   151  1.5000000000000E+00 -5.6433091416000E-02  5.9861421785000E-02
   152  1.5100000000000E+00 -5.2607444126000E-02  7.1881257118000E-02
   153  1.5200000000000E+00 -4.8893356451000E-02  8.2939450355000E-02
   154  1.5300000000000E+00 -4.5296066570000E-02  9.3053583186000E-02
   155  1.5400000000000E+00 -4.1821383028000E-02  1.0224156572000E-01
   156  1.5500000000000E+00 -3.8473232240000E-02  1.1052476782000E-01
   157  1.5600000000000E+00 -3.5255734977000E-02  1.1792533491000E-01
   158  1.5700000000000E+00 -3.2171679777000E-02  1.2446792181000E-01
   159  1.5800000000000E+00 -2.9223560707000E-02  1.3017835300000E-01
   160  1.5900000000000E+00 -2.6413051153000E-02  1.3508424856000E-01
   161  1.6000000000000E+00 -2.3741166992000E-02  1.3921441577000E-01
   162  1.6100000000000E+00 -2.1208496643000E-02  1.4259907580000E-01
   163  1.6200000000000E+00 -1.8814747817000E-02  1.4526930417000E-01
   164  1.6300000000000E+00 -1.6559468507000E-02  1.4725750584000E-01
   165  1.6400000000000E+00 -1.4441237382000E-02  1.4859632879000E-01
   166  1.6500000000000E+00 -1.2458624325000E-02  1.4931989087000E-01
   167  1.6600000000000E+00 -1.0609258221000E-02  1.4946176151000E-01
   168  1.6700000000000E+00 -8.8908118176000E-03  1.4905725173000E-01
   169  1.6800000000000E+00 -7.3001371272000E-03  1.4814026485000E-01
   170  1.6900000000000E+00 -5.8341086822000E-03  1.4674674375000E-01
   171  1.7000000000000E+00 -4.4889632373000E-03  1.4491041571000E-01
   172  1.7100000000000E+00 -3.2608925964000E-03  1.4266726000000E-01
   173  1.7200000000000E+00 -2.1456644356000E-03  1.4005040722000E-01
   174  1.7300000000000E+00 -1.1389183651000E-03  1.3709525073000E-01
   175  1.7400000000000E+00 -2.3608009865000E-04  1.3383400133000E-01
   176  1.7500000000000E+00  5.6761888543000E-04  1.3030082584000E-01
   177  1.7600000000000E+00  1.2769897811000E-03  1.2652679331000E-01
   178  1.7700000000000E+00  1.8970534977000E-03  1.2254419694000E-01
   179  1.7800000000000E+00  2.4327769569000E-03  1.1838283895000E-01
   180  1.7900000000000E+00  2.8892689052000E-03  1.1407250433000E-01
   181  1.8000000000000E+00  3.2715944486000E-03  1.0964168493000E-01
   182  1.8100000000000E+00  3.5847816567000E-03  1.0511706438000E-01
   183  1.8200000000000E+00  3.8339566436000E-03  1.0052583286000E-01
   184  1.8300000000000E+00  4.0239020614000E-03  9.5891062188000E-02
   185  1.8400000000000E+00  4.1597810987000E-03  9.1238657651000E-02
   186  1.8500000000000E+00  4.2459910366000E-03  8.6587774612000E-02
   187  1.8600000000000E+00  4.2876808178000E-03  8.1962791635000E-02
   188  1.8700000000000E+00  4.2888720170000E-03  7.7379613289000E-02
   189  1.8800000000000E+00  4.2543534142000E-03  7.2858976307000E-02
   190  1.8900000000000E+00  4.1880199373000E-03  6.8415522063000E-02
   191  1.9000000000000E+00  4.0940711851000E-03  6.4065374920000E-02
   192  1.9100000000000E+00  3.9763290146000E-03  5.9822207630000E-02
   193  1.9200000000000E+00  3.8382737646000E-03  5.5697330441000E-02
   194  1.9300000000000E+00  3.6836894361000E-03  5.1703573896000E-02
   195  1.9400000000000E+00  3.5152994406000E-03  4.7847731524000E-02
   196  1.9500000000000E+00  3.3367324938000E-03  4.4141109789000E-02
   197  1.9600000000000E+00  3.1502122323000E-03  4.0587674409000E-02
   198  1.9700000000000E+00  2.9586740863000E-03  3.7194657241000E-02
   199  1.9800000000000E+00  2.7643405976000E-03  3.3965747187000E-02
   200  1.9900000000000E+00  2.5692509935000E-03  3.0903519845000E-02
   201  2.0000000000000E+00  2.3756615517000E-03  2.8011385034000E-02
   202  2.0100000000000E+00  2.1848115727000E-03  2.5288142089000E-02
   203  2.0200000000000E+00  1.9987326229000E-03  2.2735702949000E-02
   204  2.0300000000000E+00  1.8183107682000E-03  2.0351249248000E-02
   205  2.0400000000000E+00  1.6448305186000E-03  1.8133284791000E-02
   206  2.0500000000000E+00  1.4792893836000E-03  1.6079155925000E-02
   207  2.0600000000000E+00  1.3221524917000E-03  1.4184148346000E-02
   208  2.0700000000000E+00  1.1744687826000E-03  1.2445283204000E-02
   209  2.0800000000000E+00  1.0362191202000E-03  1.0856181888000E-02
   210  2.0900000000000E+00  9.0789651117000E-04  9.4117340195000E-03
   211  2.1000000000000E+00  7.8962789473000E-04  8.1058203790000E-03
   212  2.1100000000000E+00  6.8126332746000E-04  6.9315096656000E-03
   213  2.1200000000000E+00  5.8298846070000E-04  5.8822833511000E-03
   214  2.1300000000000E+00  4.9432710431000E-04  4.9506519508000E-03
   215  2.1400000000000E+00  4.1509345964000E-04  4.1291403030000E-03
   216  2.1500000000000E+00  3.4492492626000E-04  3.4102425610000E-03
   217  2.1600000000000E+00  2.8328181640000E-04  2.7864224317000E-03
   218  2.1700000000000E+00  2.2977514443000E-04  2.2494101401000E-03
   219  2.1800000000000E+00  1.8377658193000E-04  1.7922231472000E-03
   220  2.1900000000000E+00  1.4470972292000E-04  1.4069855974000E-03
   221  2.2000000000000E+00  1.1198632273000E-04  1.0860100020000E-03
   222  2.2100000000000E+00  8.4987210770000E-05  8.2294414586000E-04
   223  2.2200000000000E+00  6.3045705765000E-05  6.0974095167000E-04
   224  2.2300000000000E+00  4.5588609089000E-05  4.4055584430000E-04
   225  2.2400000000000E+00  3.2029256639000E-05  3.0946542173000E-04
   226  2.2500000000000E+00  2.1672307059000E-05  2.0899596248000E-04
   227  2.2600000000000E+00  1.4111966499000E-05  1.3552473705000E-04
   228  2.2700000000000E+00  8.7613240329000E-06  8.3247986314000E-05
   229  2.2800000000000E+00  5.1085289405000E-06  4.7167474886000E-05
   230  2.2900000000000E+00  2.8687116334000E-06  2.4704189214000E-05
   231  2.3000000000000E+00  1.5108906515000E-06  1.0826400008000E-05
   232  2.3100000000000E+00  8.0658175153000E-07  3.3710683314000E-06
   233  2.3200000000000E+00  5.9055552740000E-07  7.7503364551000E-07
   234  2.3300000000000E+00  4.6926116384000E-07 -8.4819885091000E-07
   235  2.3400000000000E+00  4.6725874843000E-07 -9.8508310273000E-07
   236  2.3500000000000E+00  4.7924800145000E-07 -3.5655560044000E-07
   237  2.3600000000000E+00  2.9978314302000E-07 -2.8763005328000E-07
   238  2.3700000000000E+00  1.1258250955000E-07 -1.2511866848000E-07
   239  2.3800000000000E+00 -1.5776759002000E-08  1.1200779320000E-08
   240  2.3900000000000E+00 -3.3256009469000E-08  2.3610249930000E-08
   241  2.4000000000000E+00 -1.6064533393000E-08  1.1405086012000E-08
   242  2.4100000000000E+00  0.0000000000000E+00  0.0000000000000E+00
   243  2.4200000000000E+00  0.0000000000000E+00  0.0000000000000E+00
   244  2.4300000000000E+00  0.0000000000000E+00  0.0000000000000E+00
   245  2.4400000000000E+00  0.0000000000000E+00  0.0000000000000E+00
   246  2.4500000000000E+00  0.0000000000000E+00  0.0000000000000E+00
   247  2.4600000000000E+00  0.0000000000000E+00  0.0000000000000E+00
   248  2.4700000000000E+00  0.0000000000000E+00  0.0000000000000E+00
   249  2.4800000000000E+00  0.0000000000000E+00  0.0000000000000E+00
   250  2.4900000000000E+00  0.0000000000000E+00  0.0000000000000E+00
   251  2.5000000000000E+00  0.0000000000000E+00  0.0000000000000E+00
   252  2.5100000000000E+00  0.0000000000000E+00  0.0000000000000E+00
   253  2.5200000000000E+00  0.0000000000000E+00  0.0000000000000E+00
   254  2.5300000000000E+00  0.0000000000000E+00  0.0000000000000E+00
   255  2.5400000000000E+00  0.0000000000000E+00  0.0000000000000E+00
   256  2.5500000000000E+00  0.0000000000000E+00  0.0000000000000E+00
   257  2.5600000000000E+00  0.0000000000000E+00  0.0000000000000E+00
   258  2.5700000000000E+00  0.0000000000000E+00  0.0000000000000E+00
   259  2.5800000000000E+00  0.0000000000000E+00  0.0000000000000E+00
   260  2.5900000000000E+00  0.0000000000000E+00  0.0000000000000E+00
   261  2.6000000000000E+00  0.0000000000000E+00  0.0000000000000E+00
   262  2.6100000000000E+00  0.0000000000000E+00  0.0000000000000E+00
   263  2.6200000000000E+00  0.0000000000000E+00  0.0000000000000E+00
   264  2.6300000000000E+00  0.0000000000000E+00  0.0000000000000E+00
   265  2.6400000000000E+00  0.0000000000000E+00  0.0000000000000E+00
   266  2.6500000000000E+00  0.0000000000000E+00  0.0000000000000E+00
   267  2.6600000000000E+00  0.0000000000000E+00  0.0000000000000E+00
   268  2.6700000000000E+00  0.0000000000000E+00  0.0000000000000E+00
   269  2.6800000000000E+00  0.0000000000000E+00  0.0000000000000E+00
   270  2.6900000000000E+00  0.0000000000000E+00  0.0000000000000E+00
   271  2.7000000000000E+00  0.0000000000000E+00  0.0000000000000E+00
   272  2.7100000000000E+00  0.0000000000000E+00  0.0000000000000E+00
   273  2.7200000000000E+00  0.0000000000000E+00  0.0000000000000E+00
   274  2.7300000000000E+00  0.0000000000000E+00  0.0000000000000E+00
   275  2.7400000000000E+00  0.0000000000000E+00  0.0000000000000E+00
   276  2.7500000000000E+00  0.0000000000000E+00  0.0000000000000E+00
   277  2.7600000000000E+00  0.0000000000000E+00  0.0000000000000E+00
   278  2.7700000000000E+00  0.0000000000000E+00  0.0000000000000E+00
   279  2.7800000000000E+00  0.0000000000000E+00  0.0000000000000E+00
   280  2.7900000000000E+00  0.0000000000000E+00  0.0000000000000E+00
   281  2.8000000000000E+00  0.0000000000000E+00  0.0000000000000E+00
   282  2.8100000000000E+00  0.0000000000000E+00  0.0000000000000E+00
   283  2.8200000000000E+00  0.0000000000000E+00  0.0000000000000E+00
   284  2.8300000000000E+00  0.0000000000000E+00  0.0000000000000E+00
   285  2.8400000000000E+00  0.0000000000000E+00  0.0000000000000E+00
   286  2.8500000000000E+00  0.0000000000000E+00  0.0000000000000E+00
   287  2.8600000000000E+00  0.0000000000000E+00  0.0000000000000E+00
   288  2.8700000000000E+00  0.0000000000000E+00  0.0000000000000E+00
   289  2.8800000000000E+00  0.0000000000000E+00  0.0000000000000E+00
   290  2.8900000000000E+00  0.0000000000000E+00  0.0000000000000E+00
   291  2.9000000000000E+00  0.0000000000000E+00  0.0000000000000E+00
   292  2.9100000000000E+00  0.0000000000000E+00  0.0000000000000E+00
   293  2.9200000000000E+00  0.0000000000000E+00  0.0000000000000E+00
   294  2.9300000000000E+00  0.0000000000000E+00  0.0000000000000E+00
   295  2.9400000000000E+00  0.0000000000000E+00  0.0000000000000E+00
   296  2.9500000000000E+00  0.0000000000000E+00  0.0000000000000E+00
   297  2.9600000000000E+00  0.0000000000000E+00  0.0000000000000E+00
   298  2.9700000000000E+00  0.0000000000000E+00  0.0000000000000E+00
   299  2.9800000000000E+00  0.0000000000000E+00  0.0000000000000E+00
   300  2.9900000000000E+00  0.0000000000000E+00  0.0000000000000E+00
   301  3.0000000000000E+00  0.0000000000000E+00  0.0000000000000E+00
   302  3.0100000000000E+00  0.0000000000000E+00  0.0000000000000E+00
   303  3.0200000000000E+00  0.0000000000000E+00  0.0000000000000E+00
   304  3.0300000000000E+00  0.0000000000000E+00  0.0000000000000E+00
   305  3.0400000000000E+00  0.0000000000000E+00  0.0000000000000E+00
   306  3.0500000000000E+00  0.0000000000000E+00  0.0000000000000E+00
   307  3.0600000000000E+00  0.0000000000000E+00  0.0000000000000E+00
   308  3.0700000000000E+00  0.0000000000000E+00  0.0000000000000E+00
   309  3.0800000000000E+00  0.0000000000000E+00  0.0000000000000E+00
   310  3.0900000000000E+00  0.0000000000000E+00  0.0000000000000E+00
   311  3.1000000000000E+00  0.0000000000000E+00  0.0000000000000E+00
   312  3.1100000000000E+00  0.0000000000000E+00  0.0000000000000E+00
   313  3.1200000000000E+00  0.0000000000000E+00  0.0000000000000E+00
   314  3.1300000000000E+00  0.0000000000000E+00  0.0000000000000E+00
   315  3.1400000000000E+00  0.0000000000000E+00  0.0000000000000E+00
   316  3.1500000000000E+00  0.0000000000000E+00  0.0000000000000E+00
   317  3.1600000000000E+00  0.0000000000000E+00  0.0000000000000E+00
   318  3.1700000000000E+00  0.0000000000000E+00  0.0000000000000E+00
   319  3.1800000000000E+00  0.0000000000000E+00  0.0000000000000E+00
   320  3.1900000000000E+00  0.0000000000000E+00  0.0000000000000E+00
   321  3.2000000000000E+00  0.0000000000000E+00  0.0000000000000E+00
   322  3.2100000000000E+00  0.0000000000000E+00  0.0000000000000E+00
   323  3.2200000000000E+00  0.0000000000000E+00  0.0000000000000E+00
   324  3.2300000000000E+00  0.0000000000000E+00  0.0000000000000E+00
   325  3.2400000000000E+00  0.0000000000000E+00  0.0000000000000E+00
   326  3.2500000000000E+00  0.0000000000000E+00  0.0000000000000E+00
   327  3.2600000000000E+00  0.0000000000000E+00  0.0000000000000E+00
   328  3.2700000000000E+00  0.0000000000000E+00  0.0000000000000E+00
   329  3.2800000000000E+00  0.0000000000000E+00  0.0000000000000E+00
   330  3.2900000000000E+00  0.0000000000000E+00  0.0000000000000E+00
   331  3.3000000000000E+00  0.0000000000000E+00  0.0000000000000E+00
   332  3.3100000000000E+00  0.0000000000000E+00  0.0000000000000E+00
   333  3.3200000000000E+00  0.0000000000000E+00  0.0000000000000E+00
   334  3.3300000000000E+00  0.0000000000000E+00  0.0000000000000E+00
   335  3.3400000000000E+00  0.0000000000000E+00  0.0000000000000E+00
   336  3.3500000000000E+00  0.0000000000000E+00  0.0000000000000E+00
   337  3.3600000000000E+00  0.0000000000000E+00  0.0000000000000E+00
   338  3.3700000000000E+00  0.0000000000000E+00  0.0000000000000E+00
   339  3.3800000000000E+00  0.0000000000000E+00  0.0000000000000E+00
   340  3.3900000000000E+00  0.0000000000000E+00  0.0000000000000E+00
   341  3.4000000000000E+00  0.0000000000000E+00  0.0000000000000E+00
   342  3.4100000000000E+00  0.0000000000000E+00  0.0000000000000E+00
   343  3.4200000000000E+00  0.0000000000000E+00  0.0000000000000E+00
   344  3.4300000000000E+00  0.0000000000000E+00  0.0000000000000E+00
   345  3.4400000000000E+00  0.0000000000000E+00  0.0000000000000E+00
   346  3.4500000000000E+00  0.0000000000000E+00  0.0000000000000E+00
   347  3.4600000000000E+00  0.0000000000000E+00  0.0000000000000E+00
   348  3.4700000000000E+00  0.0000000000000E+00  0.0000000000000E+00
   349  3.4800000000000E+00  0.0000000000000E+00  0.0000000000000E+00
   350  3.4900000000000E+00  0.0000000000000E+00  0.0000000000000E+00
   351  3.5000000000000E+00  0.0000000000000E+00  0.0000000000000E+00
   352  3.5100000000000E+00  0.0000000000000E+00  0.0000000000000E+00
   353  3.5200000000000E+00  0.0000000000000E+00  0.0000000000000E+00
   354  3.5300000000000E+00  0.0000000000000E+00  0.0000000000000E+00
   355  3.5400000000000E+00  0.0000000000000E+00  0.0000000000000E+00
   356  3.5500000000000E+00  0.0000000000000E+00  0.0000000000000E+00
   357  3.5600000000000E+00  0.0000000000000E+00  0.0000000000000E+00
   358  3.5700000000000E+00  0.0000000000000E+00  0.0000000000000E+00
   359  3.5800000000000E+00  0.0000000000000E+00  0.0000000000000E+00
   360  3.5900000000000E+00  0.0000000000000E+00  0.0000000000000E+00
   361  3.6000000000000E+00  0.0000000000000E+00  0.0000000000000E+00
   362  3.6100000000000E+00  0.0000000000000E+00  0.0000000000000E+00
   363  3.6200000000000E+00  0.0000000000000E+00  0.0000000000000E+00
   364  3.6300000000000E+00  0.0000000000000E+00  0.0000000000000E+00
   365  3.6400000000000E+00  0.0000000000000E+00  0.0000000000000E+00
   366  3.6500000000000E+00  0.0000000000000E+00  0.0000000000000E+00
   367  3.6600000000000E+00  0.0000000000000E+00  0.0000000000000E+00
   368  3.6700000000000E+00  0.0000000000000E+00  0.0000000000000E+00
   369  3.6800000000000E+00  0.0000000000000E+00  0.0000000000000E+00
   370  3.6900000000000E+00  0.0000000000000E+00  0.0000000000000E+00
   371  3.7000000000000E+00  0.0000000000000E+00  0.0000000000000E+00
   372  3.7100000000000E+00  0.0000000000000E+00  0.0000000000000E+00
   373  3.7200000000000E+00  0.0000000000000E+00  0.0000000000000E+00
   374  3.7300000000000E+00  0.0000000000000E+00  0.0000000000000E+00
   375  3.7400000000000E+00  0.0000000000000E+00  0.0000000000000E+00
   376  3.7500000000000E+00  0.0000000000000E+00  0.0000000000000E+00
   377  3.7600000000000E+00  0.0000000000000E+00  0.0000000000000E+00
   378  3.7700000000000E+00  0.0000000000000E+00  0.0000000000000E+00
   379  3.7800000000000E+00  0.0000000000000E+00  0.0000000000000E+00
   380  3.7900000000000E+00  0.0000000000000E+00  0.0000000000000E+00
   381  3.8000000000000E+00  0.0000000000000E+00  0.0000000000000E+00
   382  3.8100000000000E+00  0.0000000000000E+00  0.0000000000000E+00
   383  3.8200000000000E+00  0.0000000000000E+00  0.0000000000000E+00
   384  3.8300000000000E+00  0.0000000000000E+00  0.0000000000000E+00
   385  3.8400000000000E+00  0.0000000000000E+00  0.0000000000000E+00
   386  3.8500000000000E+00  0.0000000000000E+00  0.0000000000000E+00
   387  3.8600000000000E+00  0.0000000000000E+00  0.0000000000000E+00
   388  3.8700000000000E+00  0.0000000000000E+00  0.0000000000000E+00
   389  3.8800000000000E+00  0.0000000000000E+00  0.0000000000000E+00
   390  3.8900000000000E+00  0.0000000000000E+00  0.0000000000000E+00
   391  3.9000000000000E+00  0.0000000000000E+00  0.0000000000000E+00
   392  3.9100000000000E+00  0.0000000000000E+00  0.0000000000000E+00
   393  3.9200000000000E+00  0.0000000000000E+00  0.0000000000000E+00
   394  3.9300000000000E+00  0.0000000000000E+00  0.0000000000000E+00
   395  3.9400000000000E+00  0.0000000000000E+00  0.0000000000000E+00
   396  3.9500000000000E+00  0.0000000000000E+00  0.0000000000000E+00
   397  3.9600000000000E+00  0.0000000000000E+00  0.0000000000000E+00
   398  3.9700000000000E+00  0.0000000000000E+00  0.0000000000000E+00
   399  3.9800000000000E+00  0.0000000000000E+00  0.0000000000000E+00
   400  3.9900000000000E+00  0.0000000000000E+00  0.0000000000000E+00
   401  4.0000000000000E+00  0.0000000000000E+00  0.0000000000000E+00
   402  4.0100000000000E+00  0.0000000000000E+00  0.0000000000000E+00
   403  4.0200000000000E+00  0.0000000000000E+00  0.0000000000000E+00
   404  4.0300000000000E+00  0.0000000000000E+00  0.0000000000000E+00
   405  4.0400000000000E+00  0.0000000000000E+00  0.0000000000000E+00
   406  4.0500000000000E+00  0.0000000000000E+00  0.0000000000000E+00
   407  4.0600000000000E+00  0.0000000000000E+00  0.0000000000000E+00
   408  4.0700000000000E+00  0.0000000000000E+00  0.0000000000000E+00
   409  4.0800000000000E+00  0.0000000000000E+00  0.0000000000000E+00
   410  4.0900000000000E+00  0.0000000000000E+00  0.0000000000000E+00
   411  4.1000000000000E+00  0.0000000000000E+00  0.0000000000000E+00
   412  4.1100000000000E+00  0.0000000000000E+00  0.0000000000000E+00
   413  4.1200000000000E+00  0.0000000000000E+00  0.0000000000000E+00
   414  4.1300000000000E+00  0.0000000000000E+00  0.0000000000000E+00
   415  4.1400000000000E+00  0.0000000000000E+00  0.0000000000000E+00
   416  4.1500000000000E+00  0.0000000000000E+00  0.0000000000000E+00
   417  4.1600000000000E+00  0.0000000000000E+00  0.0000000000000E+00
   418  4.1700000000000E+00  0.0000000000000E+00  0.0000000000000E+00
   419  4.1800000000000E+00  0.0000000000000E+00  0.0000000000000E+00
   420  4.1900000000000E+00  0.0000000000000E+00  0.0000000000000E+00
   421  4.2000000000000E+00  0.0000000000000E+00  0.0000000000000E+00
   422  4.2100000000000E+00  0.0000000000000E+00  0.0000000000000E+00
   423  4.2200000000000E+00  0.0000000000000E+00  0.0000000000000E+00