B   ONCVPSP-2.1.1   r_core=    1.77019 1.90153
    5.0000   3.0000   150105   zatom,zion,pspd
    8   11   1   4   600   0   pspcod,pspxc,lmax,lloc,mmax,r2well
    5.99000000   0.00000000   0.00000000   rchrg fchrg qchrg
    2   2   0   0   0   nproj
    1   1   extension_switch
       0                         4.3419842995500E+00  1.9616966160500E-01
     1  0.0000000000000E+00  0.0000000000000E+00  0.0000000000000E+00
     2  1.0000000000000E-02  5.2659478768000E-02  6.8436410277000E-03
     3  2.0000000000000E-02  1.0524287907000E-01  1.3648290297000E-02
     4  3.0000000000000E-02  1.5767430618000E-01  2.0374982523000E-02
     5  4.0000000000000E-02  2.0987823192000E-01  2.6984808089000E-02
     6  5.0000000000000E-02  2.6177967566000E-01  3.3438947636000E-02
     7  6.0000000000000E-02  3.1330438239000E-01  3.9698714637000E-02
     8  7.0000000000000E-02  3.6437899737000E-01  4.5725608418000E-02
     9  8.0000000000000E-02  4.1493123604000E-01  5.1481379906000E-02
    10  9.0000000000000E-02  4.6489004874000E-01  5.6928112194000E-02
    11  1.0000000000000E-01  5.1418577933000E-01  6.2028317740000E-02
    12  1.1000000000000E-01  5.6275031690000E-01  6.6745053767000E-02
    13  1.2000000000000E-01  6.1051724013000E-01  7.1042057096000E-02
    14  1.3000000000000E-01  6.5742195352000E-01  7.4883899340000E-02
    15  1.4000000000000E-01  7.0340181502000E-01  7.8236162940000E-02
    16  1.5000000000000E-01  7.4839625472000E-01  8.1065638351000E-02
    17  1.6000000000000E-01  7.9234688394000E-01  8.3340541930000E-02
    18  1.7000000000000E-01  8.3519759485000E-01  8.5030754238000E-02
    19  1.8000000000000E-01  8.7689464994000E-01  8.6108077324000E-02
    20  1.9000000000000E-01  9.1738676155000E-01  8.6546509963000E-02
    21  2.0000000000000E-01  9.5662516124000E-01  8.6322538587000E-02
    22  2.1000000000000E-01  9.9456365915000E-01  8.5415442372000E-02
    23  2.2000000000000E-01  1.0311586933000E+00  8.3807609090000E-02
    24  2.3000000000000E-01  1.0663693690000E+00  8.1484859267000E-02
    25  2.4000000000000E-01  1.1001574891000E+00  7.8436775192000E-02
    26  2.5000000000000E-01  1.1324875747000E+00  7.4657032576000E-02
    27  2.6000000000000E-01  1.1633268768000E+00  7.0143726878000E-02
    28  2.7000000000000E-01  1.1926453806000E+00  6.4899697127000E-02
    29  2.8000000000000E-01  1.2204158010000E+00  5.8932836278000E-02
    30  2.9000000000000E-01  1.2466135709000E+00  5.2256387505000E-02
    31  3.0000000000000E-01  1.2712168237000E+00  4.4889221491000E-02
    32  3.1000000000000E-01  1.2942063688000E+00  3.6856089296000E-02
    33  3.2000000000000E-01  1.3155656621000E+00  2.8187846526000E-02
    34  3.3000000000000E-01  1.3352807724000E+00  1.8921649304000E-02
    35  3.4000000000000E-01  1.3533403426000E+00  9.1011037135000E-03
    36  3.5000000000000E-01  1.3697355490000E+00 -1.2236138447000E-03
    37  3.6000000000000E-01  1.3844600573000E+00 -1.1995692719000E-02
    38  3.7000000000000E-01  1.3975099765000E+00 -2.3151660366000E-02
    39  3.8000000000000E-01  1.4088838124000E+00 -3.4621418885000E-02
    40  3.9000000000000E-01  1.4185824205000E+00 -4.6328327933000E-02
    41  4.0000000000000E-01  1.4266089572000E+00 -5.8189344272000E-02
    42  4.1000000000000E-01  1.4329688342000E+00 -7.0115226333000E-02
    43  4.2000000000000E-01  1.4376696725000E+00 -8.2010794468000E-02
    44  4.3000000000000E-01  1.4407212582000E+00 -9.3775254074000E-02
    45  4.4000000000000E-01  1.4421355002000E+00 -1.0530258072000E-01
    46  4.5000000000000E-01  1.4419263905000E+00 -1.1648196707000E-01
    47  4.6000000000000E-01  1.4401099669000E+00 -1.2719833074000E-01
    48  4.7000000000000E-01  1.4367042794000E+00 -1.3733287386000E-01
    49  4.8000000000000E-01  1.4317293561000E+00 -1.4676372350000E-01
    50  4.9000000000000E-01  1.4252071762000E+00 -1.5536660436000E-01
    51  5.0000000000000E-01  1.4171616440000E+00 -1.6301556918000E-01
    52  5.1000000000000E-01  1.4076185683000E+00 -1.6958374107000E-01
    53  5.2000000000000E-01  1.3966056345000E+00 -1.7494422976000E-01
    54  5.3000000000000E-01  1.3841523938000E+00 -1.7897090400000E-01
    55  5.4000000000000E-01  1.3702902455000E+00 -1.8153927551000E-01
    56  5.5000000000000E-01  1.3550524161000E+00 -1.8252756169000E-01
    57  5.6000000000000E-01  1.3384739578000E+00 -1.8181735227000E-01
    58  5.7000000000000E-01  1.3205917190000E+00 -1.7929495098000E-01
    59  5.8000000000000E-01  1.3014443505000E+00 -1.7485184898000E-01
    60  5.9000000000000E-01  1.2810722711000E+00 -1.6838623038000E-01
    61  6.0000000000000E-01  1.2595176722000E+00 -1.5980337002000E-01
    62  6.1000000000000E-01  1.2368244851000E+00 -1.4901702405000E-01
    63  6.2000000000000E-01  1.2130383698000E+00 -1.3595008461000E-01
    64  6.3000000000000E-01  1.1882066945000E+00 -1.2053534468000E-01
    65  6.4000000000000E-01  1.1623784948000E+00 -1.0271677911000E-01
    66  6.5000000000000E-01  1.1356044554000E+00 -8.2449865641000E-02
    67  6.6000000000000E-01  1.1079368736000E+00 -5.9702305017000E-02
    68  6.7000000000000E-01  1.0794295967000E+00 -3.4455191470000E-02
    69  6.8000000000000E-01  1.0501379895000E+00 -6.7030812089000E-03
    70  6.9000000000000E-01  1.0201188707000E+00  2.3545362552000E-02
    71  7.0000000000000E-01  9.8943045317000E-01  5.6267034353000E-02
    72  7.1000000000000E-01  9.5813224595000E-01  9.1423658134000E-02
    73  7.2000000000000E-01  9.2628499264000E-01  1.2896198481000E-01
    74  7.3000000000000E-01  8.9395057133000E-01  1.6881352113000E-01
    75  7.4000000000000E-01  8.6119189160000E-01  2.1089449744000E-01
    76  7.5000000000000E-01  8.2807278240000E-01  2.5510594863000E-01
    77  7.6000000000000E-01  7.9465787874000E-01  3.0133394974000E-01
    78  7.7000000000000E-01  7.6101245743000E-01  3.4944971309000E-01
    79  7.8000000000000E-01  7.2720232630000E-01  3.9931023114000E-01
    80  7.9000000000000E-01  6.9329366261000E-01  4.5075871446000E-01
    81  8.0000000000000E-01  6.5935285200000E-01  5.0362522075000E-01
    82  8.1000000000000E-01  6.2544631882000E-01  5.5772739132000E-01
    83  8.2000000000000E-01  5.9164034813000E-01  6.1287129160000E-01
    84  8.3000000000000E-01  5.5800090028000E-01  6.6885235149000E-01
    85  8.4000000000000E-01  5.2459341861000E-01  7.2545640049000E-01
    86  8.5000000000000E-01  4.9148263123000E-01  7.8246079184000E-01
    87  8.6000000000000E-01  4.5873234777000E-01  8.3963560875000E-01
    88  8.7000000000000E-01  4.2640525229000E-01  8.9674494544000E-01
    89  8.8000000000000E-01  3.9456269318000E-01  9.5354825464000E-01
    90  8.9000000000000E-01  3.6326447160000E-01  1.0098017526000E+00
    91  9.0000000000000E-01  3.3256862948000E-01  1.0652598720000E+00
    92  9.1000000000000E-01  3.0253123865000E-01  1.1196767524000E+00
    93  9.2000000000000E-01  2.7320619232000E-01  1.1728077572000E+00
    94  9.3000000000000E-01  2.4464500050000E-01  1.2244110061000E+00
    95  9.4000000000000E-01  2.1689663786000E-01  1.2742486897000E+00
    96  9.5000000000000E-01  1.9000725313000E-01  1.3220890251000E+00
    97  9.6000000000000E-01  1.6402000363000E-01  1.3677077333000E+00
    98  9.7000000000000E-01  1.3897493593000E-01  1.4108892514000E+00
    99  9.8000000000000E-01  1.1490879335000E-01  1.4514283006000E+00
   100  9.9000000000000E-01  9.1854864594000E-02  1.4891312706000E+00
   101  1.0000000000000E+00  6.9842846639000E-02  1.5238175355000E+00
   102  1.0100000000000E+00  4.8898765875000E-02  1.5553204278000E+00
   103  1.0200000000000E+00  2.9044876420000E-02  1.5834883140000E+00
   104  1.0300000000000E+00  1.0299270637000E-02  1.6081875467000E+00
   105  1.0400000000000E+00 -7.3238265144000E-03  1.6293012248000E+00
   106  1.0500000000000E+00 -2.3814230369000E-02  1.6467307394000E+00
   107  1.0600000000000E+00 -3.9165826873000E-02  1.6603964739000E+00
   108  1.0700000000000E+00 -5.3376373485000E-02  1.6702368509000E+00
   109  1.0800000000000E+00 -6.6448182276000E-02  1.6762136791000E+00
   110  1.0900000000000E+00 -7.8387429883000E-02  1.6783079570000E+00
   111  1.1000000000000E+00 -8.9204279366000E-02  1.6765211915000E+00
   112  1.1100000000000E+00 -9.8912703704000E-02  1.6708745148000E+00
   113  1.1200000000000E+00 -1.0753071002000E-01  1.6614110311000E+00
   114  1.1300000000000E+00 -1.1508014717000E-01  1.6481952435000E+00
   115  1.1400000000000E+00 -1.2158633026000E-01  1.6313105841000E+00
   116  1.1500000000000E+00 -1.2707792355000E-01  1.6108587965000E+00
   117  1.1600000000000E+00 -1.3158708491000E-01  1.5869623164000E+00
   118  1.1700000000000E+00 -1.3514905453000E-01  1.5597618929000E+00
   119  1.1800000000000E+00 -1.3780184876000E-01  1.5294142978000E+00
   120  1.1900000000000E+00 -1.3958616948000E-01  1.4960913071000E+00
   121  1.2000000000000E+00 -1.4054524050000E-01  1.4599823562000E+00
   122  1.2100000000000E+00 -1.4072430983000E-01  1.4212885067000E+00
   123  1.2200000000000E+00 -1.4017066713000E-01  1.3802227489000E+00
   124  1.2300000000000E+00 -1.3893317175000E-01  1.3370096401000E+00
   125  1.2400000000000E+00 -1.3706184628000E-01  1.2918817695000E+00
   126  1.2500000000000E+00 -1.3460805475000E-01  1.2450794442000E+00
   127  1.2600000000000E+00 -1.3162381774000E-01  1.1968488235000E+00
   128  1.2700000000000E+00 -1.2816118077000E-01  1.1474380115000E+00
   129  1.2800000000000E+00 -1.2427295359000E-01  1.0970991040000E+00
   130  1.2900000000000E+00 -1.2001149713000E-01  1.0460835003000E+00
   131  1.3000000000000E+00 -1.1542810705000E-01  9.9463775275000E-01
   132  1.3100000000000E+00 -1.1057446870000E-01  9.4300977095000E-01
   133  1.3200000000000E+00 -1.0550019536000E-01  8.9143735089000E-01
   134  1.3300000000000E+00 -1.0025323872000E-01  8.4014869215000E-01
   135  1.3400000000000E+00 -9.4881770555000E-02  7.8937202326000E-01
   136  1.3500000000000E+00 -8.9429442408000E-02  7.3931094680000E-01
   137  1.3600000000000E+00 -8.3939074495000E-02  6.9016250870000E-01
   138  1.3700000000000E+00 -7.8451820890000E-02  6.4211324393000E-01
   139  1.3800000000000E+00 -7.3003612510000E-02  5.9531891355000E-01
   140  1.3900000000000E+00 -6.7630466643000E-02  5.4993404877000E-01
   141  1.4000000000000E+00 -6.2363296960000E-02  5.0608580444000E-01
   142  1.4100000000000E+00 -5.7230597169000E-02  4.6389030469000E-01
   143  1.4200000000000E+00 -5.2259652941000E-02  4.2345725660000E-01
   144  1.4300000000000E+00 -4.7471523333000E-02  3.8486718675000E-01
   145  1.4400000000000E+00 -4.2887778412000E-02  3.4820170684000E-01
   146  1.4500000000000E+00 -3.8524168853000E-02  3.1351454916000E-01
   147  1.4600000000000E+00 -3.4394812421000E-02  2.8085044845000E-01
   148  1.4700000000000E+00 -3.0511229300000E-02  2.5024085941000E-01
   149  1.4800000000000E+00 -2.6880083613000E-02  2.2169298422000E-01
   150  1.4900000000000E+00 -2.3508573549000E-02  1.9521534426000E-01
   151  1.5000000000000E+00 -2.0397123784000E-02  1.7078299170000E-01
   152  1.5100000000000E+00 -1.7547164477000E-02  1.4837450173000E-01
   153  1.5200000000000E+00 -1.4955101682000E-02  1.2794327435000E-01
   154  1.5300000000000E+00 -1.2616623235000E-02  1.0943811507000E-01
   155  1.5400000000000E+00 -1.0524605141000E-02  9.2793215884000E-02
   156  1.5500000000000E+00 -8.6699776039000E-03  7.7932632131000E-02
   157  1.5600000000000E+00 -7.0424619514000E-03  6.4773363204000E-02
   158  1.5700000000000E+00 -5.6294297879000E-03  5.3221013617000E-02
   159  1.5800000000000E+00 -4.4178961992000E-03  4.3177871216000E-02
   160  1.5900000000000E+00 -3.3929445071000E-03  3.4537921618000E-02
   161  1.6000000000000E+00 -2.5394364284000E-03  2.7191847683000E-02
   162  1.6100000000000E+00 -1.8413934474000E-03  2.1028611233000E-02
   163  1.6200000000000E+00 -1.2822970307000E-03  1.5932014192000E-02
   164  1.6300000000000E+00 -8.4611819254000E-04  1.1791285717000E-02
   165  1.6400000000000E+00 -5.1598028003000E-04  8.4891846880000E-03
   166  1.6500000000000E+00 -2.7662907141000E-04  5.9199634867000E-03
   167  1.6600000000000E+00 -1.1183909482000E-04  3.9710032984000E-03
   168  1.6700000000000E+00 -7.9754581263000E-06  2.5464866306000E-03
   169  1.6800000000000E+00  4.9658003947000E-05  1.5433791338000E-03
   170  1.6900000000000E+00  7.2236210924000E-05  8.8071020878000E-04
   171  1.7000000000000E+00  7.2208346899000E-05  4.6910633120000E-04
   172  1.7100000000000E+00  5.7488800567000E-05  2.4715607321000E-04
   173  1.7200000000000E+00  3.7733452588000E-05  1.4226107158000E-04
   174  1.7300000000000E+00  1.6883835990000E-05  1.1679299284000E-04
   175  1.7400000000000E+00  1.4190330205000E-06  1.1711943131000E-04
   176  1.7500000000000E+00 -9.3779637000000E-06  1.3366834976000E-04
   177  1.7600000000000E+00 -1.3306173661000E-05  1.3944882420000E-04
   178  1.7700000000000E+00 -1.2562909599000E-05  1.2929278065000E-04
   179  1.7800000000000E+00 -7.0671057649000E-06  7.0015917419000E-05
   180  1.7900000000000E+00 -7.8621355448000E-07  7.6051905527000E-06
   181  1.8000000000000E+00  8.3468444746000E-07 -8.5984112213000E-06
   182  1.8100000000000E+00  2.9345797734000E-07 -3.0230254955000E-06
   183  1.8200000000000E+00  0.0000000000000E+00  0.0000000000000E+00
   184  1.8300000000000E+00  0.0000000000000E+00  0.0000000000000E+00
   185  1.8400000000000E+00  0.0000000000000E+00  0.0000000000000E+00
   186  1.8500000000000E+00  0.0000000000000E+00  0.0000000000000E+00
   187  1.8600000000000E+00  0.0000000000000E+00  0.0000000000000E+00
   188  1.8700000000000E+00  0.0000000000000E+00  0.0000000000000E+00
   189  1.8800000000000E+00  0.0000000000000E+00  0.0000000000000E+00
   190  1.8900000000000E+00  0.0000000000000E+00  0.0000000000000E+00
   191  1.9000000000000E+00  0.0000000000000E+00  0.0000000000000E+00
   192  1.9100000000000E+00  0.0000000000000E+00  0.0000000000000E+00
   193  1.9200000000000E+00  0.0000000000000E+00  0.0000000000000E+00
   194  1.9300000000000E+00  0.0000000000000E+00  0.0000000000000E+00
   195  1.9400000000000E+00  0.0000000000000E+00  0.0000000000000E+00
   196  1.9500000000000E+00  0.0000000000000E+00  0.0000000000000E+00
   197  1.9600000000000E+00  0.0000000000000E+00  0.0000000000000E+00
   198  1.9700000000000E+00  0.0000000000000E+00  0.0000000000000E+00
   199  1.9800000000000E+00  0.0000000000000E+00  0.0000000000000E+00
   200  1.9900000000000E+00  0.0000000000000E+00  0.0000000000000E+00
   201  2.0000000000000E+00  0.0000000000000E+00  0.0000000000000E+00
   202  2.0100000000000E+00  0.0000000000000E+00  0.0000000000000E+00
   203  2.0200000000000E+00  0.0000000000000E+00  0.0000000000000E+00
   204  2.0300000000000E+00  0.0000000000000E+00  0.0000000000000E+00
   205  2.0400000000000E+00  0.0000000000000E+00  0.0000000000000E+00
   206  2.0500000000000E+00  0.0000000000000E+00  0.0000000000000E+00
   207  2.0600000000000E+00  0.0000000000000E+00  0.0000000000000E+00
   208  2.0700000000000E+00  0.0000000000000E+00  0.0000000000000E+00
   209  2.0800000000000E+00  0.0000000000000E+00  0.0000000000000E+00
   210  2.0900000000000E+00  0.0000000000000E+00  0.0000000000000E+00
   211  2.1000000000000E+00  0.0000000000000E+00  0.0000000000000E+00
   212  2.1100000000000E+00  0.0000000000000E+00  0.0000000000000E+00
   213  2.1200000000000E+00  0.0000000000000E+00  0.0000000000000E+00
   214  2.1300000000000E+00  0.0000000000000E+00  0.0000000000000E+00
   215  2.1400000000000E+00  0.0000000000000E+00  0.0000000000000E+00
   216  2.1500000000000E+00  0.0000000000000E+00  0.0000000000000E+00
   217  2.1600000000000E+00  0.0000000000000E+00  0.0000000000000E+00
   218  2.1700000000000E+00  0.0000000000000E+00  0.0000000000000E+00
   219  2.1800000000000E+00  0.0000000000000E+00  0.0000000000000E+00
   220  2.1900000000000E+00  0.0000000000000E+00  0.0000000000000E+00
   221  2.2000000000000E+00  0.0000000000000E+00  0.0000000000000E+00
   222  2.2100000000000E+00  0.0000000000000E+00  0.0000000000000E+00
   223  2.2200000000000E+00  0.0000000000000E+00  0.0000000000000E+00
   224  2.2300000000000E+00  0.0000000000000E+00  0.0000000000000E+00
   225  2.2400000000000E+00  0.0000000000000E+00  0.0000000000000E+00
   226  2.2500000000000E+00  0.0000000000000E+00  0.0000000000000E+00
   227  2.2600000000000E+00  0.0000000000000E+00  0.0000000000000E+00
   228  2.2700000000000E+00  0.0000000000000E+00  0.0000000000000E+00
   229  2.2800000000000E+00  0.0000000000000E+00  0.0000000000000E+00
   230  2.2900000000000E+00  0.0000000000000E+00  0.0000000000000E+00
   231  2.3000000000000E+00  0.0000000000000E+00  0.0000000000000E+00
   232  2.3100000000000E+00  0.0000000000000E+00  0.0000000000000E+00
   233  2.3200000000000E+00  0.0000000000000E+00  0.0000000000000E+00
   234  2.3300000000000E+00  0.0000000000000E+00  0.0000000000000E+00
   235  2.3400000000000E+00  0.0000000000000E+00  0.0000000000000E+00
   236  2.3500000000000E+00  0.0000000000000E+00  0.0000000000000E+00
   237  2.3600000000000E+00  0.0000000000000E+00  0.0000000000000E+00
   238  2.3700000000000E+00  0.0000000000000E+00  0.0000000000000E+00
   239  2.3800000000000E+00  0.0000000000000E+00  0.0000000000000E+00
   240  2.3900000000000E+00  0.0000000000000E+00  0.0000000000000E+00
   241  2.4000000000000E+00  0.0000000000000E+00  0.0000000000000E+00
   242  2.4100000000000E+00  0.0000000000000E+00  0.0000000000000E+00
   243  2.4200000000000E+00  0.0000000000000E+00  0.0000000000000E+00
   244  2.4300000000000E+00  0.0000000000000E+00  0.0000000000000E+00
   245  2.4400000000000E+00  0.0000000000000E+00  0.0000000000000E+00
   246  2.4500000000000E+00  0.0000000000000E+00  0.0000000000000E+00
   247  2.4600000000000E+00  0.0000000000000E+00  0.0000000000000E+00
   248  2.4700000000000E+00  0.0000000000000E+00  0.0000000000000E+00
   249  2.4800000000000E+00  0.0000000000000E+00  0.0000000000000E+00
   250  2.4900000000000E+00  0.0000000000000E+00  0.0000000000000E+00
   251  2.5000000000000E+00  0.0000000000000E+00  0.0000000000000E+00
   252  2.5100000000000E+00  0.0000000000000E+00  0.0000000000000E+00
   253  2.5200000000000E+00  0.0000000000000E+00  0.0000000000000E+00
   254  2.5300000000000E+00  0.0000000000000E+00  0.0000000000000E+00
   255  2.5400000000000E+00  0.0000000000000E+00  0.0000000000000E+00
   256  2.5500000000000E+00  0.0000000000000E+00  0.0000000000000E+00
   257  2.5600000000000E+00  0.0000000000000E+00  0.0000000000000E+00
   258  2.5700000000000E+00  0.0000000000000E+00  0.0000000000000E+00
   259  2.5800000000000E+00  0.0000000000000E+00  0.0000000000000E+00
   260  2.5900000000000E+00  0.0000000000000E+00  0.0000000000000E+00
   261  2.6000000000000E+00  0.0000000000000E+00  0.0000000000000E+00
   262  2.6100000000000E+00  0.0000000000000E+00  0.0000000000000E+00
   263  2.6200000000000E+00  0.0000000000000E+00  0.0000000000000E+00
   264  2.6300000000000E+00  0.0000000000000E+00  0.0000000000000E+00
   265  2.6400000000000E+00  0.0000000000000E+00  0.0000000000000E+00
   266  2.6500000000000E+00  0.0000000000000E+00  0.0000000000000E+00
   267  2.6600000000000E+00  0.0000000000000E+00  0.0000000000000E+00
   268  2.6700000000000E+00  0.0000000000000E+00  0.0000000000000E+00
   269  2.6800000000000E+00  0.0000000000000E+00  0.0000000000000E+00
   270  2.6900000000000E+00  0.0000000000000E+00  0.0000000000000E+00
   271  2.7000000000000E+00  0.0000000000000E+00  0.0000000000000E+00
   272  2.7100000000000E+00  0.0000000000000E+00  0.0000000000000E+00
   273  2.7200000000000E+00  0.0000000000000E+00  0.0000000000000E+00
   274  2.7300000000000E+00  0.0000000000000E+00  0.0000000000000E+00
   275  2.7400000000000E+00  0.0000000000000E+00  0.0000000000000E+00
   276  2.7500000000000E+00  0.0000000000000E+00  0.0000000000000E+00
   277  2.7600000000000E+00  0.0000000000000E+00  0.0000000000000E+00
   278  2.7700000000000E+00  0.0000000000000E+00  0.0000000000000E+00
   279  2.7800000000000E+00  0.0000000000000E+00  0.0000000000000E+00
   280  2.7900000000000E+00  0.0000000000000E+00  0.0000000000000E+00
   281  2.8000000000000E+00  0.0000000000000E+00  0.0000000000000E+00
   282  2.8100000000000E+00  0.0000000000000E+00  0.0000000000000E+00
   283  2.8200000000000E+00  0.0000000000000E+00  0.0000000000000E+00
   284  2.8300000000000E+00  0.0000000000000E+00  0.0000000000000E+00
   285  2.8400000000000E+00  0.0000000000000E+00  0.0000000000000E+00
   286  2.8500000000000E+00  0.0000000000000E+00  0.0000000000000E+00
   287  2.8600000000000E+00  0.0000000000000E+00  0.0000000000000E+00
   288  2.8700000000000E+00  0.0000000000000E+00  0.0000000000000E+00
   289  2.8800000000000E+00  0.0000000000000E+00  0.0000000000000E+00
   290  2.8900000000000E+00  0.0000000000000E+00  0.0000000000000E+00
   291  2.9000000000000E+00  0.0000000000000E+00  0.0000000000000E+00
   292  2.9100000000000E+00  0.0000000000000E+00  0.0000000000000E+00
   293  2.9200000000000E+00  0.0000000000000E+00  0.0000000000000E+00
   294  2.9300000000000E+00  0.0000000000000E+00  0.0000000000000E+00
   295  2.9400000000000E+00  0.0000000000000E+00  0.0000000000000E+00
   296  2.9500000000000E+00  0.0000000000000E+00  0.0000000000000E+00
   297  2.9600000000000E+00  0.0000000000000E+00  0.0000000000000E+00
   298  2.9700000000000E+00  0.0000000000000E+00  0.0000000000000E+00
   299  2.9800000000000E+00  0.0000000000000E+00  0.0000000000000E+00
   300  2.9900000000000E+00  0.0000000000000E+00  0.0000000000000E+00
   301  3.0000000000000E+00  0.0000000000000E+00  0.0000000000000E+00
   302  3.0100000000000E+00  0.0000000000000E+00  0.0000000000000E+00
   303  3.0200000000000E+00  0.0000000000000E+00  0.0000000000000E+00
   304  3.0300000000000E+00  0.0000000000000E+00  0.0000000000000E+00
   305  3.0400000000000E+00  0.0000000000000E+00  0.0000000000000E+00
   306  3.0500000000000E+00  0.0000000000000E+00  0.0000000000000E+00
   307  3.0600000000000E+00  0.0000000000000E+00  0.0000000000000E+00
   308  3.0700000000000E+00  0.0000000000000E+00  0.0000000000000E+00
   309  3.0800000000000E+00  0.0000000000000E+00  0.0000000000000E+00
   310  3.0900000000000E+00  0.0000000000000E+00  0.0000000000000E+00
   311  3.1000000000000E+00  0.0000000000000E+00  0.0000000000000E+00
   312  3.1100000000000E+00  0.0000000000000E+00  0.0000000000000E+00
   313  3.1200000000000E+00  0.0000000000000E+00  0.0000000000000E+00
   314  3.1300000000000E+00  0.0000000000000E+00  0.0000000000000E+00
   315  3.1400000000000E+00  0.0000000000000E+00  0.0000000000000E+00
   316  3.1500000000000E+00  0.0000000000000E+00  0.0000000000000E+00
   317  3.1600000000000E+00  0.0000000000000E+00  0.0000000000000E+00
   318  3.1700000000000E+00  0.0000000000000E+00  0.0000000000000E+00
   319  3.1800000000000E+00  0.0000000000000E+00  0.0000000000000E+00
   320  3.1900000000000E+00  0.0000000000000E+00  0.0000000000000E+00
   321  3.2000000000000E+00  0.0000000000000E+00  0.0000000000000E+00
   322  3.2100000000000E+00  0.0000000000000E+00  0.0000000000000E+00
   323  3.2200000000000E+00  0.0000000000000E+00  0.0000000000000E+00
   324  3.2300000000000E+00  0.0000000000000E+00  0.0000000000000E+00
   325  3.2400000000000E+00  0.0000000000000E+00  0.0000000000000E+00
   326  3.2500000000000E+00  0.0000000000000E+00  0.0000000000000E+00
   327  3.2600000000000E+00  0.0000000000000E+00  0.0000000000000E+00
   328  3.2700000000000E+00  0.0000000000000E+00  0.0000000000000E+00
   329  3.2800000000000E+00  0.0000000000000E+00  0.0000000000000E+00
   330  3.2900000000000E+00  0.0000000000000E+00  0.0000000000000E+00
   331  3.3000000000000E+00  0.0000000000000E+00  0.0000000000000E+00
   332  3.3100000000000E+00  0.0000000000000E+00  0.0000000000000E+00
   333  3.3200000000000E+00  0.0000000000000E+00  0.0000000000000E+00
   334  3.3300000000000E+00  0.0000000000000E+00  0.0000000000000E+00
   335  3.3400000000000E+00  0.0000000000000E+00  0.0000000000000E+00
   336  3.3500000000000E+00  0.0000000000000E+00  0.0000000000000E+00
   337  3.3600000000000E+00  0.0000000000000E+00  0.0000000000000E+00
   338  3.3700000000000E+00  0.0000000000000E+00  0.0000000000000E+00
   339  3.3800000000000E+00  0.0000000000000E+00  0.0000000000000E+00
   340  3.3900000000000E+00  0.0000000000000E+00  0.0000000000000E+00
   341  3.4000000000000E+00  0.0000000000000E+00  0.0000000000000E+00
   342  3.4100000000000E+00  0.0000000000000E+00  0.0000000000000E+00
   343  3.4200000000000E+00  0.0000000000000E+00  0.0000000000000E+00
   344  3.4300000000000E+00  0.0000000000000E+00  0.0000000000000E+00
   345  3.4400000000000E+00  0.0000000000000E+00  0.0000000000000E+00
   346  3.4500000000000E+00  0.0000000000000E+00  0.0000000000000E+00
   347  3.4600000000000E+00  0.0000000000000E+00  0.0000000000000E+00
   348  3.4700000000000E+00  0.0000000000000E+00  0.0000000000000E+00
   349  3.4800000000000E+00  0.0000000000000E+00  0.0000000000000E+00
   350  3.4900000000000E+00  0.0000000000000E+00  0.0000000000000E+00
   351  3.5000000000000E+00  0.0000000000000E+00  0.0000000000000E+00
   352  3.5100000000000E+00  0.0000000000000E+00  0.0000000000000E+00
   353  3.5200000000000E+00  0.0000000000000E+00  0.0000000000000E+00
   354  3.5300000000000E+00  0.0000000000000E+00  0.0000000000000E+00
   355  3.5400000000000E+00  0.0000000000000E+00  0.0000000000000E+00
   356  3.5500000000000E+00  0.0000000000000E+00  0.0000000000000E+00
   357  3.5600000000000E+00  0.0000000000000E+00  0.0000000000000E+00
   358  3.5700000000000E+00  0.0000000000000E+00  0.0000000000000E+00
   359  3.5800000000000E+00  0.0000000000000E+00  0.0000000000000E+00
   360  3.5900000000000E+00  0.0000000000000E+00  0.0000000000000E+00
   361  3.6000000000000E+00  0.0000000000000E+00  0.0000000000000E+00
   362  3.6100000000000E+00  0.0000000000000E+00  0.0000000000000E+00
   363  3.6200000000000E+00  0.0000000000000E+00  0.0000000000000E+00
   364  3.6300000000000E+00  0.0000000000000E+00  0.0000000000000E+00
   365  3.6400000000000E+00  0.0000000000000E+00  0.0000000000000E+00
   366  3.6500000000000E+00  0.0000000000000E+00  0.0000000000000E+00
   367  3.6600000000000E+00  0.0000000000000E+00  0.0000000000000E+00
   368  3.6700000000000E+00  0.0000000000000E+00  0.0000000000000E+00
   369  3.6800000000000E+00  0.0000000000000E+00  0.0000000000000E+00
   370  3.6900000000000E+00  0.0000000000000E+00  0.0000000000000E+00
   371  3.7000000000000E+00  0.0000000000000E+00  0.0000000000000E+00
   372  3.7100000000000E+00  0.0000000000000E+00  0.0000000000000E+00
   373  3.7200000000000E+00  0.0000000000000E+00  0.0000000000000E+00
   374  3.7300000000000E+00  0.0000000000000E+00  0.0000000000000E+00
   375  3.7400000000000E+00  0.0000000000000E+00  0.0000000000000E+00
   376  3.7500000000000E+00  0.0000000000000E+00  0.0000000000000E+00
   377  3.7600000000000E+00  0.0000000000000E+00  0.0000000000000E+00
   378  3.7700000000000E+00  0.0000000000000E+00  0.0000000000000E+00
   379  3.7800000000000E+00  0.0000000000000E+00  0.0000000000000E+00
   380  3.7900000000000E+00  0.0000000000000E+00  0.0000000000000E+00
   381  3.8000000000000E+00  0.0000000000000E+00  0.0000000000000E+00
   382  3.8100000000000E+00  0.0000000000000E+00  0.0000000000000E+00
   383  3.8200000000000E+00  0.0000000000000E+00  0.0000000000000E+00
   384  3.8300000000000E+00  0.0000000000000E+00  0.0000000000000E+00
   385  3.8400000000000E+00  0.0000000000000E+00  0.0000000000000E+00
   386  3.8500000000000E+00  0.0000000000000E+00  0.0000000000000E+00
   387  3.8600000000000E+00  0.0000000000000E+00  0.0000000000000E+00
   388  3.8700000000000E+00  0.0000000000000E+00  0.0000000000000E+00
   389  3.8800000000000E+00  0.0000000000000E+00  0.0000000000000E+00
   390  3.8900000000000E+00  0.0000000000000E+00  0.0000000000000E+00
   391  3.9000000000000E+00  0.0000000000000E+00  0.0000000000000E+00
   392  3.9100000000000E+00  0.0000000000000E+00  0.0000000000000E+00
   393  3.9200000000000E+00  0.0000000000000E+00  0.0000000000000E+00
   394  3.9300000000000E+00  0.0000000000000E+00  0.0000000000000E+00
   395  3.9400000000000E+00  0.0000000000000E+00  0.0000000000000E+00
   396  3.9500000000000E+00  0.0000000000000E+00  0.0000000000000E+00
   397  3.9600000000000E+00  0.0000000000000E+00  0.0000000000000E+00
   398  3.9700000000000E+00  0.0000000000000E+00  0.0000000000000E+00
   399  3.9800000000000E+00  0.0000000000000E+00  0.0000000000000E+00
   400  3.9900000000000E+00  0.0000000000000E+00  0.0000000000000E+00
   401  4.0000000000000E+00  0.0000000000000E+00  0.0000000000000E+00
   402  4.0100000000000E+00  0.0000000000000E+00  0.0000000000000E+00
   403  4.0200000000000E+00  0.0000000000000E+00  0.0000000000000E+00
   404  4.0300000000000E+00  0.0000000000000E+00  0.0000000000000E+00
   405  4.0400000000000E+00  0.0000000000000E+00  0.0000000000000E+00
   406  4.0500000000000E+00  0.0000000000000E+00  0.0000000000000E+00
   407  4.0600000000000E+00  0.0000000000000E+00  0.0000000000000E+00
   408  4.0700000000000E+00  0.0000000000000E+00  0.0000000000000E+00
   409  4.0800000000000E+00  0.0000000000000E+00  0.0000000000000E+00
   410  4.0900000000000E+00  0.0000000000000E+00  0.0000000000000E+00
   411  4.1000000000000E+00  0.0000000000000E+00  0.0000000000000E+00
   412  4.1100000000000E+00  0.0000000000000E+00  0.0000000000000E+00
   413  4.1200000000000E+00  0.0000000000000E+00  0.0000000000000E+00
   414  4.1300000000000E+00  0.0000000000000E+00  0.0000000000000E+00
   415  4.1400000000000E+00  0.0000000000000E+00  0.0000000000000E+00
   416  4.1500000000000E+00  0.0000000000000E+00  0.0000000000000E+00
   417  4.1600000000000E+00  0.0000000000000E+00  0.0000000000000E+00
   418  4.1700000000000E+00  0.0000000000000E+00  0.0000000000000E+00
   419  4.1800000000000E+00  0.0000000000000E+00  0.0000000000000E+00
   420  4.1900000000000E+00  0.0000000000000E+00  0.0000000000000E+00
   421  4.2000000000000E+00  0.0000000000000E+00  0.0000000000000E+00
   422  4.2100000000000E+00  0.0000000000000E+00  0.0000000000000E+00
   423  4.2200000000000E+00  0.0000000000000E+00  0.0000000000000E+00