C   ONCVPSP-2.1.1   r_core=    1.42330 1.38975
    6.0000   4.0000   150105   zatom,zion,pspd
    8   11   1   4   600   0   pspcod,pspxc,lmax,lloc,mmax,r2well
    5.99000000   0.00000000   0.00000000   rchrg fchrg qchrg
    2   2   0   0   0   nproj
    1   1   extension_switch
       0                         7.2186228230000E+00  6.6901007845000E-01
     1  0.0000000000000E+00  0.0000000000000E+00  0.0000000000000E+00
     2  1.0000000000000E-02 -5.5613271269000E-02  2.3067709730000E-02
     3  2.0000000000000E-02 -1.1119051307000E-01  4.5716658983000E-02
     4  3.0000000000000E-02 -1.6669531982000E-01  6.7533617857000E-02
     5  4.0000000000000E-02 -2.2209053692000E-01  8.8116353020000E-02
     6  5.0000000000000E-02 -2.7733789416000E-01  1.0707896531000E-01
     7  6.0000000000000E-02 -3.3239764864000E-01  1.2405703656000E-01
     8  7.0000000000000E-02 -3.8722824040000E-01  1.3871252533000E-01
     9  8.0000000000000E-02 -4.4178596382000E-01  1.5073835444000E-01
    10  9.0000000000000E-02 -4.9602465812000E-01  1.5986263601000E-01
    11  1.0000000000000E-01 -5.4989541981000E-01  1.6585248473000E-01
    12  1.1000000000000E-01 -6.0334634048000E-01  1.6851737385000E-01
    13  1.2000000000000E-01 -6.5632227279000E-01  1.6771199427000E-01
    14  1.3000000000000E-01 -7.0876462765000E-01  1.6333858242000E-01
    15  1.4000000000000E-01 -7.6061120571000E-01  1.5534868870000E-01
    16  1.5000000000000E-01 -8.1179606575000E-01  1.4374436469000E-01
    17  1.6000000000000E-01 -8.6224943279000E-01  1.2857875388000E-01
    18  1.7000000000000E-01 -9.1189764856000E-01  1.0995607757000E-01
    19  1.8000000000000E-01 -9.6066316657000E-01  8.8031014550000E-02
    20  1.9000000000000E-01 -1.0084645940000E+00  6.3007479679000E-02
    21  2.0000000000000E-01 -1.0552167827000E+00  3.5136814269000E-02
    22  2.1000000000000E-01 -1.1008309700000E+00  4.7154060025000E-03
    23  2.2000000000000E-01 -1.1452149723000E+00 -2.7918233600000E-02
    24  2.3000000000000E-01 -1.1882734310000E+00 -6.2386905804000E-02
    25  2.4000000000000E-01 -1.2299081114000E+00 -9.8278631938000E-02
    26  2.5000000000000E-01 -1.2700182571000E+00 -1.3515099787000E-01
    27  2.6000000000000E-01 -1.3085009954000E+00 -1.7253587311000E-01
    28  2.7000000000000E-01 -1.3452517986000E+00 -2.0994447350000E-01
    29  2.8000000000000E-01 -1.3801649934000E+00 -2.4687267826000E-01
    30  2.9000000000000E-01 -1.4131343232000E+00 -2.8280657771000E-01
    31  3.0000000000000E-01 -1.4440535559000E+00 -3.1722816874000E-01
    32  3.1000000000000E-01 -1.4728171382000E+00 -3.4962113899000E-01
    33  3.2000000000000E-01 -1.4993208877000E+00 -3.7947665823000E-01
    34  3.3000000000000E-01 -1.5234627239000E+00 -4.0629913454000E-01
    35  3.4000000000000E-01 -1.5451434405000E+00 -4.2961194542000E-01
    36  3.5000000000000E-01 -1.5642674755000E+00 -4.4896274320000E-01
    37  3.6000000000000E-01 -1.5807437527000E+00 -4.6392894971000E-01
    38  3.7000000000000E-01 -1.5944864832000E+00 -4.7412249777000E-01
    39  3.8000000000000E-01 -1.6054160053000E+00 -4.7919448847000E-01
    40  3.9000000000000E-01 -1.6134596387000E+00 -4.7883952072000E-01
    41  4.0000000000000E-01 -1.6185524933000E+00 -4.7279929662000E-01
    42  4.1000000000000E-01 -1.6206382900000E+00 -4.6086593767000E-01
    43  4.2000000000000E-01 -1.6196701528000E+00 -4.4288472176000E-01
    44  4.3000000000000E-01 -1.6156113680000E+00 -4.1875625821000E-01
    45  4.4000000000000E-01 -1.6084361037000E+00 -3.8843807730000E-01
    46  4.5000000000000E-01 -1.5981300800000E+00 -3.5194561652000E-01
    47  4.6000000000000E-01 -1.5846911817000E+00 -3.0935259113000E-01
    48  4.7000000000000E-01 -1.5681300041000E+00 -2.6079074337000E-01
    49  4.8000000000000E-01 -1.5484703113000E+00 -2.0644893984000E-01
    50  4.9000000000000E-01 -1.5257494496000E+00 -1.4657178976000E-01
    51  5.0000000000000E-01 -1.5000186588000E+00 -8.1457572141000E-02
    52  5.1000000000000E-01 -1.4713432376000E+00 -1.1455507612000E-02
    53  5.2000000000000E-01 -1.4398026348000E+00  6.3037333155000E-02
    54  5.3000000000000E-01 -1.4054905509000E+00  1.4157966980000E-01
    55  5.4000000000000E-01 -1.3685146772000E+00  2.2369020627000E-01
    56  5.5000000000000E-01 -1.3289965718000E+00  3.0885213908000E-01
    57  5.6000000000000E-01 -1.2870712624000E+00  3.9651813121000E-01
    58  5.7000000000000E-01 -1.2428867860000E+00  4.8611538829000E-01
    59  5.8000000000000E-01 -1.1966036110000E+00  5.7705138513000E-01
    60  5.9000000000000E-01 -1.1483939266000E+00  6.6871930973000E-01
    61  6.0000000000000E-01 -1.0984408255000E+00  7.6050385263000E-01
    62  6.1000000000000E-01 -1.0469373522000E+00  8.5178769419000E-01
    63  6.2000000000000E-01 -9.9408555019000E-01  9.4195580569000E-01
    64  6.3000000000000E-01 -9.4009516808000E-01  1.0304036347000E+00
    65  6.4000000000000E-01 -8.8518254828000E-01  1.1165409947000E+00
    66  6.5000000000000E-01 -8.2956942126000E-01  1.1997970938000E+00
    67  6.6000000000000E-01 -7.7348116631000E-01  1.2796285372000E+00
    68  6.7000000000000E-01 -7.1714566782000E-01  1.3555217873000E+00
    69  6.8000000000000E-01 -6.6079180421000E-01  1.4269981510000E+00
    70  6.9000000000000E-01 -6.0464785738000E-01  1.4936184008000E+00
    71  7.0000000000000E-01 -5.4893973387000E-01  1.5549875529000E+00
    72  7.1000000000000E-01 -4.9388970760000E-01  1.6107565292000E+00
    73  7.2000000000000E-01 -4.3971475844000E-01  1.6606255060000E+00
    74  7.3000000000000E-01 -3.8662506605000E-01  1.7043460376000E+00
    75  7.4000000000000E-01 -3.3482257069000E-01  1.7417225630000E+00
    76  7.5000000000000E-01 -2.8449910584000E-01  1.7726148147000E+00
    77  7.6000000000000E-01 -2.3583550385000E-01  1.7969365993000E+00
    78  7.7000000000000E-01 -1.8900014659000E-01  1.8146562309000E+00
    79  7.8000000000000E-01 -1.4414777488000E-01  1.8257957750000E+00
    80  7.9000000000000E-01 -1.0141841382000E-01  1.8304296834000E+00
    81  8.0000000000000E-01 -6.0936428031000E-02  1.8286828316000E+00
    82  8.1000000000000E-01 -2.2809719759000E-02  1.8207279743000E+00
    83  8.2000000000000E-01  1.2870917665000E-02  1.8067826546000E+00
    84  8.3000000000000E-01  4.6032286873000E-02  1.7871054642000E+00
    85  8.4000000000000E-01  7.6619185954000E-02  1.7619885640000E+00
    86  8.5000000000000E-01  1.0459449581000E-01  1.7317492614000E+00
    87  8.6000000000000E-01  1.2993886432000E-01  1.6967256087000E+00
    88  8.7000000000000E-01  1.5265022723000E-01  1.6572735203000E+00
    89  8.8000000000000E-01  1.7274325482000E-01  1.6137639478000E+00
    90  8.9000000000000E-01  1.9024872713000E-01  1.5665800584000E+00
    91  9.0000000000000E-01  2.0521283746000E-01  1.5161143767000E+00
    92  9.1000000000000E-01  2.1769642230000E-01  1.4627658799000E+00
    93  9.2000000000000E-01  2.2777411557000E-01  1.4069370546000E+00
    94  9.3000000000000E-01  2.3553342652000E-01  1.3490309383000E+00
    95  9.4000000000000E-01  2.4107374225000E-01  1.2894481785000E+00
    96  9.5000000000000E-01  2.4450525808000E-01  1.2285841437000E+00
    97  9.6000000000000E-01  2.4594784404000E-01  1.1668262281000E+00
    98  9.7000000000000E-01  2.4552992635000E-01  1.1045518696000E+00
    99  9.8000000000000E-01  2.4338711116000E-01  1.0421234163000E+00
   100  9.9000000000000E-01  2.3966089207000E-01  9.7988824683000E-01
   101  1.0000000000000E+00  2.3449734129000E-01  9.1817586315000E-01
   102  1.0100000000000E+00  2.2804576362000E-01  8.5729598099000E-01
   103  1.0200000000000E+00  2.2045735035000E-01  7.9753687277000E-01
   104  1.0300000000000E+00  2.1188422137000E-01  7.3916527239000E-01
   105  1.0400000000000E+00  2.0247733702000E-01  6.8242200310000E-01
   106  1.0500000000000E+00  1.9238526163000E-01  6.2752226975000E-01
   107  1.0600000000000E+00  1.8175337847000E-01  5.7465649266000E-01
   108  1.0700000000000E+00  1.7072254511000E-01  5.2398923604000E-01
   109  1.0800000000000E+00  1.5942879480000E-01  4.7566075833000E-01
   110  1.0900000000000E+00  1.4800043560000E-01  4.2978273454000E-01
   111  1.1000000000000E+00  1.3655768834000E-01  3.8644086782000E-01
   112  1.1100000000000E+00  1.2521274981000E-01  3.4569714807000E-01
   113  1.1200000000000E+00  1.1406935220000E-01  3.0759062354000E-01
   114  1.1300000000000E+00  1.0322127664000E-01  2.7213661126000E-01
   115  1.1400000000000E+00  9.2750074200000E-02  2.3932613834000E-01
   116  1.1500000000000E+00  8.2727811014000E-02  2.0913172082000E-01
   117  1.1600000000000E+00  7.3216956189000E-02  1.8150800390000E-01
   118  1.1700000000000E+00  6.4267516697000E-02  1.5639022604000E-01
   119  1.1800000000000E+00  5.5917614308000E-02  1.3369751312000E-01
   120  1.1900000000000E+00  4.8195885141000E-02  1.1333623863000E-01
   121  1.2000000000000E+00  4.1122270271000E-02  9.5200769880000E-02
   122  1.2100000000000E+00  3.4702475278000E-02  7.9173116586000E-02
   123  1.2200000000000E+00  2.8934977668000E-02  6.5128243168000E-02
   124  1.2300000000000E+00  2.3810704026000E-02  5.2933613582000E-02
   125  1.2400000000000E+00  1.9309860275000E-02  4.2451526636000E-02
   126  1.2500000000000E+00  1.5406237827000E-02  3.3541862170000E-02
   127  1.2600000000000E+00  1.2068355857000E-02  2.6061170654000E-02
   128  1.2700000000000E+00  9.2577204258000E-03  1.9867107189000E-02
   129  1.2800000000000E+00  6.9320567266000E-03  1.4820066031000E-02
   130  1.2900000000000E+00  5.0459878610000E-03  1.0779904049000E-02
   131  1.3000000000000E+00  3.5511837804000E-03  7.6141470477000E-03
   132  1.3100000000000E+00  2.3989717107000E-03  5.1967128759000E-03
   133  1.3200000000000E+00  1.5391246660000E-03  3.4024655844000E-03
   134  1.3300000000000E+00  9.2381731001000E-04  2.1220620902000E-03
   135  1.3400000000000E+00  5.0691190516000E-04  1.2519381938000E-03
   136  1.3500000000000E+00  2.4289709098000E-04  6.9364125876000E-04
   137  1.3600000000000E+00  9.4025490031000E-05  3.6952886338000E-04
   138  1.3700000000000E+00  2.3604593760000E-05  2.0433090635000E-04
   139  1.3800000000000E+00  1.4941504363000E-06  1.3841414032000E-04
   140  1.3900000000000E+00  5.7525659110000E-06  1.2849467237000E-04
   141  1.4000000000000E+00  1.4918100380000E-05  1.3272993813000E-04
   142  1.4100000000000E+00  2.3327320257000E-05  1.4184754494000E-04
   143  1.4200000000000E+00  2.4278000861000E-05  1.3802749548000E-04
   144  1.4300000000000E+00  1.4355301716000E-05  8.0181139989000E-05
   145  1.4400000000000E+00  4.4864826766000E-07  2.4740919097000E-06
   146  1.4500000000000E+00 -1.4271774587000E-06 -8.0849129709000E-06
   147  1.4600000000000E+00  0.0000000000000E+00  0.0000000000000E+00
   148  1.4700000000000E+00  0.0000000000000E+00  0.0000000000000E+00
   149  1.4800000000000E+00  0.0000000000000E+00  0.0000000000000E+00
   150  1.4900000000000E+00  0.0000000000000E+00  0.0000000000000E+00
   151  1.5000000000000E+00  0.0000000000000E+00  0.0000000000000E+00
   152  1.5100000000000E+00  0.0000000000000E+00  0.0000000000000E+00
   153  1.5200000000000E+00  0.0000000000000E+00  0.0000000000000E+00
   154  1.5300000000000E+00  0.0000000000000E+00  0.0000000000000E+00
   155  1.5400000000000E+00  0.0000000000000E+00  0.0000000000000E+00
   156  1.5500000000000E+00  0.0000000000000E+00  0.0000000000000E+00
   157  1.5600000000000E+00  0.0000000000000E+00  0.0000000000000E+00
   158  1.5700000000000E+00  0.0000000000000E+00  0.0000000000000E+00
   159  1.5800000000000E+00  0.0000000000000E+00  0.0000000000000E+00
   160  1.5900000000000E+00  0.0000000000000E+00  0.0000000000000E+00
   161  1.6000000000000E+00  0.0000000000000E+00  0.0000000000000E+00
   162  1.6100000000000E+00  0.0000000000000E+00  0.0000000000000E+00
   163  1.6200000000000E+00  0.0000000000000E+00  0.0000000000000E+00
   164  1.6300000000000E+00  0.0000000000000E+00  0.0000000000000E+00
   165  1.6400000000000E+00  0.0000000000000E+00  0.0000000000000E+00
   166  1.6500000000000E+00  0.0000000000000E+00  0.0000000000000E+00
   167  1.6600000000000E+00  0.0000000000000E+00  0.0000000000000E+00
   168  1.6700000000000E+00  0.0000000000000E+00  0.0000000000000E+00
   169  1.6800000000000E+00  0.0000000000000E+00  0.0000000000000E+00
   170  1.6900000000000E+00  0.0000000000000E+00  0.0000000000000E+00
   171  1.7000000000000E+00  0.0000000000000E+00  0.0000000000000E+00
   172  1.7100000000000E+00  0.0000000000000E+00  0.0000000000000E+00
   173  1.7200000000000E+00  0.0000000000000E+00  0.0000000000000E+00
   174  1.7300000000000E+00  0.0000000000000E+00  0.0000000000000E+00
   175  1.7400000000000E+00  0.0000000000000E+00  0.0000000000000E+00
   176  1.7500000000000E+00  0.0000000000000E+00  0.0000000000000E+00
   177  1.7600000000000E+00  0.0000000000000E+00  0.0000000000000E+00
   178  1.7700000000000E+00  0.0000000000000E+00  0.0000000000000E+00
   179  1.7800000000000E+00  0.0000000000000E+00  0.0000000000000E+00
   180  1.7900000000000E+00  0.0000000000000E+00  0.0000000000000E+00
   181  1.8000000000000E+00  0.0000000000000E+00  0.0000000000000E+00
   182  1.8100000000000E+00  0.0000000000000E+00  0.0000000000000E+00
   183  1.8200000000000E+00  0.0000000000000E+00  0.0000000000000E+00
   184  1.8300000000000E+00  0.0000000000000E+00  0.0000000000000E+00
   185  1.8400000000000E+00  0.0000000000000E+00  0.0000000000000E+00
   186  1.8500000000000E+00  0.0000000000000E+00  0.0000000000000E+00
   187  1.8600000000000E+00  0.0000000000000E+00  0.0000000000000E+00
   188  1.8700000000000E+00  0.0000000000000E+00  0.0000000000000E+00
   189  1.8800000000000E+00  0.0000000000000E+00  0.0000000000000E+00
   190  1.8900000000000E+00  0.0000000000000E+00  0.0000000000000E+00
   191  1.9000000000000E+00  0.0000000000000E+00  0.0000000000000E+00
   192  1.9100000000000E+00  0.0000000000000E+00  0.0000000000000E+00
   193  1.9200000000000E+00  0.0000000000000E+00  0.0000000000000E+00
   194  1.9300000000000E+00  0.0000000000000E+00  0.0000000000000E+00
   195  1.9400000000000E+00  0.0000000000000E+00  0.0000000000000E+00
   196  1.9500000000000E+00  0.0000000000000E+00  0.0000000000000E+00
   197  1.9600000000000E+00  0.0000000000000E+00  0.0000000000000E+00
   198  1.9700000000000E+00  0.0000000000000E+00  0.0000000000000E+00
   199  1.9800000000000E+00  0.0000000000000E+00  0.0000000000000E+00
   200  1.9900000000000E+00  0.0000000000000E+00  0.0000000000000E+00
   201  2.0000000000000E+00  0.0000000000000E+00  0.0000000000000E+00
   202  2.0100000000000E+00  0.0000000000000E+00  0.0000000000000E+00
   203  2.0200000000000E+00  0.0000000000000E+00  0.0000000000000E+00
   204  2.0300000000000E+00  0.0000000000000E+00  0.0000000000000E+00
   205  2.0400000000000E+00  0.0000000000000E+00  0.0000000000000E+00
   206  2.0500000000000E+00  0.0000000000000E+00  0.0000000000000E+00
   207  2.0600000000000E+00  0.0000000000000E+00  0.0000000000000E+00
   208  2.0700000000000E+00  0.0000000000000E+00  0.0000000000000E+00
   209  2.0800000000000E+00  0.0000000000000E+00  0.0000000000000E+00
   210  2.0900000000000E+00  0.0000000000000E+00  0.0000000000000E+00
   211  2.1000000000000E+00  0.0000000000000E+00  0.0000000000000E+00
   212  2.1100000000000E+00  0.0000000000000E+00  0.0000000000000E+00
   213  2.1200000000000E+00  0.0000000000000E+00  0.0000000000000E+00
   214  2.1300000000000E+00  0.0000000000000E+00  0.0000000000000E+00
   215  2.1400000000000E+00  0.0000000000000E+00  0.0000000000000E+00
   216  2.1500000000000E+00  0.0000000000000E+00  0.0000000000000E+00
   217  2.1600000000000E+00  0.0000000000000E+00  0.0000000000000E+00
   218  2.1700000000000E+00  0.0000000000000E+00  0.0000000000000E+00
   219  2.1800000000000E+00  0.0000000000000E+00  0.0000000000000E+00
   220  2.1900000000000E+00  0.0000000000000E+00  0.0000000000000E+00
   221  2.2000000000000E+00  0.0000000000000E+00  0.0000000000000E+00
   222  2.2100000000000E+00  0.0000000000000E+00  0.0000000000000E+00
   223  2.2200000000000E+00  0.0000000000000E+00  0.0000000000000E+00
   224  2.2300000000000E+00  0.0000000000000E+00  0.0000000000000E+00
   225  2.2400000000000E+00  0.0000000000000E+00  0.0000000000000E+00
   226  2.2500000000000E+00  0.0000000000000E+00  0.0000000000000E+00
   227  2.2600000000000E+00  0.0000000000000E+00  0.0000000000000E+00
   228  2.2700000000000E+00  0.0000000000000E+00  0.0000000000000E+00
   229  2.2800000000000E+00  0.0000000000000E+00  0.0000000000000E+00
   230  2.2900000000000E+00  0.0000000000000E+00  0.0000000000000E+00
   231  2.3000000000000E+00  0.0000000000000E+00  0.0000000000000E+00
   232  2.3100000000000E+00  0.0000000000000E+00  0.0000000000000E+00
   233  2.3200000000000E+00  0.0000000000000E+00  0.0000000000000E+00
   234  2.3300000000000E+00  0.0000000000000E+00  0.0000000000000E+00
   235  2.3400000000000E+00  0.0000000000000E+00  0.0000000000000E+00
   236  2.3500000000000E+00  0.0000000000000E+00  0.0000000000000E+00
   237  2.3600000000000E+00  0.0000000000000E+00  0.0000000000000E+00
   238  2.3700000000000E+00  0.0000000000000E+00  0.0000000000000E+00
   239  2.3800000000000E+00  0.0000000000000E+00  0.0000000000000E+00
   240  2.3900000000000E+00  0.0000000000000E+00  0.0000000000000E+00
   241  2.4000000000000E+00  0.0000000000000E+00  0.0000000000000E+00
   242  2.4100000000000E+00  0.0000000000000E+00  0.0000000000000E+00
   243  2.4200000000000E+00  0.0000000000000E+00  0.0000000000000E+00
   244  2.4300000000000E+00  0.0000000000000E+00  0.0000000000000E+00
   245  2.4400000000000E+00  0.0000000000000E+00  0.0000000000000E+00
   246  2.4500000000000E+00  0.0000000000000E+00  0.0000000000000E+00
   247  2.4600000000000E+00  0.0000000000000E+00  0.0000000000000E+00
   248  2.4700000000000E+00  0.0000000000000E+00  0.0000000000000E+00
   249  2.4800000000000E+00  0.0000000000000E+00  0.0000000000000E+00
   250  2.4900000000000E+00  0.0000000000000E+00  0.0000000000000E+00
   251  2.5000000000000E+00  0.0000000000000E+00  0.0000000000000E+00
   252  2.5100000000000E+00  0.0000000000000E+00  0.0000000000000E+00
   253  2.5200000000000E+00  0.0000000000000E+00  0.0000000000000E+00
   254  2.5300000000000E+00  0.0000000000000E+00  0.0000000000000E+00
   255  2.5400000000000E+00  0.0000000000000E+00  0.0000000000000E+00
   256  2.5500000000000E+00  0.0000000000000E+00  0.0000000000000E+00
   257  2.5600000000000E+00  0.0000000000000E+00  0.0000000000000E+00
   258  2.5700000000000E+00  0.0000000000000E+00  0.0000000000000E+00
   259  2.5800000000000E+00  0.0000000000000E+00  0.0000000000000E+00
   260  2.5900000000000E+00  0.0000000000000E+00  0.0000000000000E+00
   261  2.6000000000000E+00  0.0000000000000E+00  0.0000000000000E+00
   262  2.6100000000000E+00  0.0000000000000E+00  0.0000000000000E+00
   263  2.6200000000000E+00  0.0000000000000E+00  0.0000000000000E+00
   264  2.6300000000000E+00  0.0000000000000E+00  0.0000000000000E+00
   265  2.6400000000000E+00  0.0000000000000E+00  0.0000000000000E+00
   266  2.6500000000000E+00  0.0000000000000E+00  0.0000000000000E+00
   267  2.6600000000000E+00  0.0000000000000E+00  0.0000000000000E+00
   268  2.6700000000000E+00  0.0000000000000E+00  0.0000000000000E+00
   269  2.6800000000000E+00  0.0000000000000E+00  0.0000000000000E+00
   270  2.6900000000000E+00  0.0000000000000E+00  0.0000000000000E+00
   271  2.7000000000000E+00  0.0000000000000E+00  0.0000000000000E+00
   272  2.7100000000000E+00  0.0000000000000E+00  0.0000000000000E+00
   273  2.7200000000000E+00  0.0000000000000E+00  0.0000000000000E+00
   274  2.7300000000000E+00  0.0000000000000E+00  0.0000000000000E+00
   275  2.7400000000000E+00  0.0000000000000E+00  0.0000000000000E+00
   276  2.7500000000000E+00  0.0000000000000E+00  0.0000000000000E+00
   277  2.7600000000000E+00  0.0000000000000E+00  0.0000000000000E+00
   278  2.7700000000000E+00  0.0000000000000E+00  0.0000000000000E+00
   279  2.7800000000000E+00  0.0000000000000E+00  0.0000000000000E+00
   280  2.7900000000000E+00  0.0000000000000E+00  0.0000000000000E+00
   281  2.8000000000000E+00  0.0000000000000E+00  0.0000000000000E+00
   282  2.8100000000000E+00  0.0000000000000E+00  0.0000000000000E+00
   283  2.8200000000000E+00  0.0000000000000E+00  0.0000000000000E+00
   284  2.8300000000000E+00  0.0000000000000E+00  0.0000000000000E+00
   285  2.8400000000000E+00  0.0000000000000E+00  0.0000000000000E+00
   286  2.8500000000000E+00  0.0000000000000E+00  0.0000000000000E+00
   287  2.8600000000000E+00  0.0000000000000E+00  0.0000000000000E+00
   288  2.8700000000000E+00  0.0000000000000E+00  0.0000000000000E+00
   289  2.8800000000000E+00  0.0000000000000E+00  0.0000000000000E+00
   290  2.8900000000000E+00  0.0000000000000E+00  0.0000000000000E+00
   291  2.9000000000000E+00  0.0000000000000E+00  0.0000000000000E+00
   292  2.9100000000000E+00  0.0000000000000E+00  0.0000000000000E+00
   293  2.9200000000000E+00  0.0000000000000E+00  0.0000000000000E+00
   294  2.9300000000000E+00  0.0000000000000E+00  0.0000000000000E+00
   295  2.9400000000000E+00  0.0000000000000E+00  0.0000000000000E+00
   296  2.9500000000000E+00  0.0000000000000E+00  0.0000000000000E+00
   297  2.9600000000000E+00  0.0000000000000E+00  0.0000000000000E+00
   298  2.9700000000000E+00  0.0000000000000E+00  0.0000000000000E+00
   299  2.9800000000000E+00  0.0000000000000E+00  0.0000000000000E+00
   300  2.9900000000000E+00  0.0000000000000E+00  0.0000000000000E+00
   301  3.0000000000000E+00  0.0000000000000E+00  0.0000000000000E+00
   302  3.0100000000000E+00  0.0000000000000E+00  0.0000000000000E+00
   303  3.0200000000000E+00  0.0000000000000E+00  0.0000000000000E+00
   304  3.0300000000000E+00  0.0000000000000E+00  0.0000000000000E+00
   305  3.0400000000000E+00  0.0000000000000E+00  0.0000000000000E+00
   306  3.0500000000000E+00  0.0000000000000E+00  0.0000000000000E+00
   307  3.0600000000000E+00  0.0000000000000E+00  0.0000000000000E+00
   308  3.0700000000000E+00  0.0000000000000E+00  0.0000000000000E+00
   309  3.0800000000000E+00  0.0000000000000E+00  0.0000000000000E+00
   310  3.0900000000000E+00  0.0000000000000E+00  0.0000000000000E+00
   311  3.1000000000000E+00  0.0000000000000E+00  0.0000000000000E+00
   312  3.1100000000000E+00  0.0000000000000E+00  0.0000000000000E+00
   313  3.1200000000000E+00  0.0000000000000E+00  0.0000000000000E+00
   314  3.1300000000000E+00  0.0000000000000E+00  0.0000000000000E+00
   315  3.1400000000000E+00  0.0000000000000E+00  0.0000000000000E+00
   316  3.1500000000000E+00  0.0000000000000E+00  0.0000000000000E+00
   317  3.1600000000000E+00  0.0000000000000E+00  0.0000000000000E+00
   318  3.1700000000000E+00  0.0000000000000E+00  0.0000000000000E+00
   319  3.1800000000000E+00  0.0000000000000E+00  0.0000000000000E+00
   320  3.1900000000000E+00  0.0000000000000E+00  0.0000000000000E+00
   321  3.2000000000000E+00  0.0000000000000E+00  0.0000000000000E+00
   322  3.2100000000000E+00  0.0000000000000E+00  0.0000000000000E+00
   323  3.2200000000000E+00  0.0000000000000E+00  0.0000000000000E+00
   324  3.2300000000000E+00  0.0000000000000E+00  0.0000000000000E+00
   325  3.2400000000000E+00  0.0000000000000E+00  0.0000000000000E+00
   326  3.2500000000000E+00  0.0000000000000E+00  0.0000000000000E+00
   327  3.2600000000000E+00  0.0000000000000E+00  0.0000000000000E+00
   328  3.2700000000000E+00  0.0000000000000E+00  0.0000000000000E+00
   329  3.2800000000000E+00  0.0000000000000E+00  0.0000000000000E+00
   330  3.2900000000000E+00  0.0000000000000E+00  0.0000000000000E+00
   331  3.3000000000000E+00  0.0000000000000E+00  0.0000000000000E+00
   332  3.3100000000000E+00  0.0000000000000E+00  0.0000000000000E+00
   333  3.3200000000000E+00  0.0000000000000E+00  0.0000000000000E+00
   334  3.3300000000000E+00  0.0000000000000E+00  0.0000000000000E+00
   335  3.3400000000000E+00  0.0000000000000E+00  0.0000000000000E+00
   336  3.3500000000000E+00  0.0000000000000E+00  0.0000000000000E+00
   337  3.3600000000000E+00  0.0000000000000E+00  0.0000000000000E+00
   338  3.3700000000000E+00  0.0000000000000E+00  0.0000000000000E+00
   339  3.3800000000000E+00  0.0000000000000E+00  0.0000000000000E+00
   340  3.3900000000000E+00  0.0000000000000E+00  0.0000000000000E+00
   341  3.4000000000000E+00  0.0000000000000E+00  0.0000000000000E+00
   342  3.4100000000000E+00  0.0000000000000E+00  0.0000000000000E+00
   343  3.4200000000000E+00  0.0000000000000E+00  0.0000000000000E+00
   344  3.4300000000000E+00  0.0000000000000E+00  0.0000000000000E+00
   345  3.4400000000000E+00  0.0000000000000E+00  0.0000000000000E+00
   346  3.4500000000000E+00  0.0000000000000E+00  0.0000000000000E+00
   347  3.4600000000000E+00  0.0000000000000E+00  0.0000000000000E+00
   348  3.4700000000000E+00  0.0000000000000E+00  0.0000000000000E+00
   349  3.4800000000000E+00  0.0000000000000E+00  0.0000000000000E+00
   350  3.4900000000000E+00  0.0000000000000E+00  0.0000000000000E+00
   351  3.5000000000000E+00  0.0000000000000E+00  0.0000000000000E+00
   352  3.5100000000000E+00  0.0000000000000E+00  0.0000000000000E+00
   353  3.5200000000000E+00  0.0000000000000E+00  0.0000000000000E+00
   354  3.5300000000000E+00  0.0000000000000E+00  0.0000000000000E+00
   355  3.5400000000000E+00  0.0000000000000E+00  0.0000000000000E+00
   356  3.5500000000000E+00  0.0000000000000E+00  0.0000000000000E+00
   357  3.5600000000000E+00  0.0000000000000E+00  0.0000000000000E+00
   358  3.5700000000000E+00  0.0000000000000E+00  0.0000000000000E+00
   359  3.5800000000000E+00  0.0000000000000E+00  0.0000000000000E+00
   360  3.5900000000000E+00  0.0000000000000E+00  0.0000000000000E+00
   361  3.6000000000000E+00  0.0000000000000E+00  0.0000000000000E+00
   362  3.6100000000000E+00  0.0000000000000E+00  0.0000000000000E+00
   363  3.6200000000000E+00  0.0000000000000E+00  0.0000000000000E+00
   364  3.6300000000000E+00  0.0000000000000E+00  0.0000000000000E+00
   365  3.6400000000000E+00  0.0000000000000E+00  0.0000000000000E+00
   366  3.6500000000000E+00  0.0000000000000E+00  0.0000000000000E+00
   367  3.6600000000000E+00  0.0000000000000E+00  0.0000000000000E+00
   368  3.6700000000000E+00  0.0000000000000E+00  0.0000000000000E+00
   369  3.6800000000000E+00  0.0000000000000E+00  0.0000000000000E+00
   370  3.6900000000000E+00  0.0000000000000E+00  0.0000000000000E+00
   371  3.7000000000000E+00  0.0000000000000E+00  0.0000000000000E+00
   372  3.7100000000000E+00  0.0000000000000E+00  0.0000000000000E+00
   373  3.7200000000000E+00  0.0000000000000E+00  0.0000000000000E+00
   374  3.7300000000000E+00  0.0000000000000E+00  0.0000000000000E+00
   375  3.7400000000000E+00  0.0000000000000E+00  0.0000000000000E+00
   376  3.7500000000000E+00  0.0000000000000E+00  0.0000000000000E+00
   377  3.7600000000000E+00  0.0000000000000E+00  0.0000000000000E+00
   378  3.7700000000000E+00  0.0000000000000E+00  0.0000000000000E+00
   379  3.7800000000000E+00  0.0000000000000E+00  0.0000000000000E+00
   380  3.7900000000000E+00  0.0000000000000E+00  0.0000000000000E+00
   381  3.8000000000000E+00  0.0000000000000E+00  0.0000000000000E+00
   382  3.8100000000000E+00  0.0000000000000E+00  0.0000000000000E+00
   383  3.8200000000000E+00  0.0000000000000E+00  0.0000000000000E+00
   384  3.8300000000000E+00  0.0000000000000E+00  0.0000000000000E+00
   385  3.8400000000000E+00  0.0000000000000E+00  0.0000000000000E+00
   386  3.8500000000000E+00  0.0000000000000E+00  0.0000000000000E+00
   387  3.8600000000000E+00  0.0000000000000E+00  0.0000000000000E+00
   388  3.8700000000000E+00  0.0000000000000E+00  0.0000000000000E+00
   389  3.8800000000000E+00  0.0000000000000E+00  0.0000000000000E+00
   390  3.8900000000000E+00  0.0000000000000E+00  0.0000000000000E+00
   391  3.9000000000000E+00  0.0000000000000E+00  0.0000000000000E+00
   392  3.9100000000000E+00  0.0000000000000E+00  0.0000000000000E+00
   393  3.9200000000000E+00  0.0000000000000E+00  0.0000000000000E+00
   394  3.9300000000000E+00  0.0000000000000E+00  0.0000000000000E+00
   395  3.9400000000000E+00  0.0000000000000E+00  0.0000000000000E+00
   396  3.9500000000000E+00  0.0000000000000E+00  0.0000000000000E+00
   397  3.9600000000000E+00  0.0000000000000E+00  0.0000000000000E+00
   398  3.9700000000000E+00  0.0000000000000E+00  0.0000000000000E+00
   399  3.9800000000000E+00  0.0000000000000E+00  0.0000000000000E+00
   400  3.9900000000000E+00  0.0000000000000E+00  0.0000000000000E+00
   401  4.0000000000000E+00  0.0000000000000E+00  0.0000000000000E+00
   402  4.0100000000000E+00  0.0000000000000E+00  0.0000000000000E+00
   403  4.0200000000000E+00  0.0000000000000E+00  0.0000000000000E+00
   404  4.0300000000000E+00  0.0000000000000E+00  0.0000000000000E+00
   405  4.0400000000000E+00  0.0000000000000E+00  0.0000000000000E+00
   406  4.0500000000000E+00  0.0000000000000E+00  0.0000000000000E+00
   407  4.0600000000000E+00  0.0000000000000E+00  0.0000000000000E+00
   408  4.0700000000000E+00  0.0000000000000E+00  0.0000000000000E+00
   409  4.0800000000000E+00  0.0000000000000E+00  0.0000000000000E+00
   410  4.0900000000000E+00  0.0000000000000E+00  0.0000000000000E+00
   411  4.1000000000000E+00  0.0000000000000E+00  0.0000000000000E+00
   412  4.1100000000000E+00  0.0000000000000E+00  0.0000000000000E+00
   413  4.1200000000000E+00  0.0000000000000E+00  0.0000000000000E+00
   414  4.1300000000000E+00  0.0000000000000E+00  0.0000000000000E+00
   415  4.1400000000000E+00  0.0000000000000E+00  0.0000000000000E+00
   416  4.1500000000000E+00  0.0000000000000E+00  0.0000000000000E+00
   417  4.1600000000000E+00  0.0000000000000E+00  0.0000000000000E+00
   418  4.1700000000000E+00  0.0000000000000E+00  0.0000000000000E+00
   419  4.1800000000000E+00  0.0000000000000E+00  0.0000000000000E+00
   420  4.1900000000000E+00  0.0000000000000E+00  0.0000000000000E+00
   421  4.2000000000000E+00  0.0000000000000E+00  0.0000000000000E+00
   422  4.2100000000000E+00  0.0000000000000E+00  0.0000000000000E+00
   423  4.2200000000000E+00  0.0000000000000E+00  0.0000000000000E+00