N   ONCVPSP-2.1.1   r_core=    1.60510 1.51217
    7.0000   5.0000   150105   zatom,zion,pspd
    8   11   1   4   600   0   pspcod,pspxc,lmax,lloc,mmax,r2well
    5.99000000   0.00000000   0.00000000   rchrg fchrg qchrg
    2   2   0   0   0   nproj
    1   1   extension_switch
       0                         7.0709405395000E+00  9.7810806495000E-01
     1  0.0000000000000E+00  0.0000000000000E+00  0.0000000000000E+00
     2  1.0000000000000E-02 -8.3799978758000E-02  3.4202071705000E-02
     3  2.0000000000000E-02 -1.6739572131000E-01  6.8223060462000E-02
     4  3.0000000000000E-02 -2.5058347602000E-01  1.0188221609000E-01
     5  4.0000000000000E-02 -3.3316046091000E-01  1.3499945841000E-01
     6  5.0000000000000E-02 -4.1492534943000E-01  1.6739572340000E-01
     7  6.0000000000000E-02 -4.9567875756000E-01  1.9889332240000E-01
     8  7.0000000000000E-02 -5.7522373225000E-01  2.2931631837000E-01
     9  8.0000000000000E-02 -6.5336624156000E-01  2.5849092288000E-01
    10  9.0000000000000E-02 -7.2991566646000E-01  2.8624591687000E-01
    11  1.0000000000000E-01 -8.0468529415000E-01  3.1241309807000E-01
    12  1.1000000000000E-01 -8.7749281273000E-01  3.3682775702000E-01
    13  1.2000000000000E-01 -9.4816080680000E-01  3.5932918347000E-01
    14  1.3000000000000E-01 -1.0165172531000E+00  3.7976120373000E-01
    15  1.4000000000000E-01 -1.0823960160000E+00  3.9797274940000E-01
    16  1.5000000000000E-01 -1.1456373403000E+00  4.1381845671000E-01
    17  1.6000000000000E-01 -1.2060883426000E+00  4.2715929523000E-01
    18  1.7000000000000E-01 -1.2636034969000E+00  4.3786322380000E-01
    19  1.8000000000000E-01 -1.3180451146000E+00  4.4580587071000E-01
    20  1.9000000000000E-01 -1.3692838167000E+00  4.5087123501000E-01
    21  2.0000000000000E-01 -1.4171989948000E+00  4.5295240300000E-01
    22  2.1000000000000E-01 -1.4616792613000E+00  4.5195227787000E-01
    23  2.2000000000000E-01 -1.5026228826000E+00  4.4778431264000E-01
    24  2.3000000000000E-01 -1.5399381961000E+00  4.4037324385000E-01
    25  2.4000000000000E-01 -1.5735440055000E+00  4.2965581555000E-01
    26  2.5000000000000E-01 -1.6033699548000E+00  4.1558149156000E-01
    27  2.6000000000000E-01 -1.6293568729000E+00  3.9811313867000E-01
    28  2.7000000000000E-01 -1.6514570922000E+00  3.7722768640000E-01
    29  2.8000000000000E-01 -1.6696347318000E+00  3.5291673940000E-01
    30  2.9000000000000E-01 -1.6838659469000E+00  3.2518714678000E-01
    31  3.0000000000000E-01 -1.6941391395000E+00  2.9406151348000E-01
    32  3.1000000000000E-01 -1.7004551274000E+00  2.5957864650000E-01
    33  3.2000000000000E-01 -1.7028272678000E+00  2.2179392535000E-01
    34  3.3000000000000E-01 -1.7012815376000E+00  1.8077959755000E-01
    35  3.4000000000000E-01 -1.6958565607000E+00  1.3662498106000E-01
    36  3.5000000000000E-01 -1.6866035833000E+00  8.9436564804000E-02
    37  3.6000000000000E-01 -1.6735864011000E+00  3.9338024087000E-02
    38  3.7000000000000E-01 -1.6568812243000E+00 -1.3529890547000E-02
    39  3.8000000000000E-01 -1.6365764898000E+00 -6.9009569418000E-02
    40  3.9000000000000E-01 -1.6127726165000E+00 -1.2692686957000E-01
    41  4.0000000000000E-01 -1.5855816990000E+00 -1.8709157423000E-01
    42  4.1000000000000E-01 -1.5551271458000E+00 -2.4929796483000E-01
    43  4.2000000000000E-01 -1.5215432577000E+00 -3.1332551797000E-01
    44  4.3000000000000E-01 -1.4849747486000E+00 -3.7893972516000E-01
    45  4.4000000000000E-01 -1.4455762098000E+00 -4.4589303371000E-01
    46  4.5000000000000E-01 -1.4035115187000E+00 -5.1392590615000E-01
    47  4.6000000000000E-01 -1.3589531938000E+00 -5.8276799434000E-01
    48  4.7000000000000E-01 -1.3120816999000E+00 -6.5213942244000E-01
    49  4.8000000000000E-01 -1.2630847208000E+00 -7.2175214472000E-01
    50  4.9000000000000E-01 -1.2121563356000E+00 -7.9131148837000E-01
    51  5.0000000000000E-01 -1.1594962087000E+00 -8.6051769093000E-01
    52  5.1000000000000E-01 -1.1053087439000E+00 -9.2906750937000E-01
    53  5.2000000000000E-01 -1.0498021810000E+00 -9.9665594024000E-01
    54  5.3000000000000E-01 -9.9318759247000E-01 -1.0629781296000E+00
    55  5.4000000000000E-01 -9.3567810149000E-01 -1.1277308774000E+00
    56  5.5000000000000E-01 -8.7748771381000E-01 -1.1906148495000E+00
    57  5.6000000000000E-01 -8.1883051998000E-01 -1.2513361029000E+00
    58  5.7000000000000E-01 -7.5991958760000E-01 -1.3096081729000E+00
    59  5.8000000000000E-01 -7.0096607470000E-01 -1.3651537407000E+00
    60  5.9000000000000E-01 -6.4217812966000E-01 -1.4177066785000E+00
    61  6.0000000000000E-01 -5.8376016496000E-01 -1.4670133845000E+00
    62  6.1000000000000E-01 -5.2591151569000E-01 -1.5128352316000E+00
    63  6.2000000000000E-01 -4.6882604504000E-01 -1.5549492422000E+00
    64  6.3000000000000E-01 -4.1269075906000E-01 -1.5931505580000E+00
    65  6.4000000000000E-01 -3.5768518786000E-01 -1.6272534653000E+00
    66  6.5000000000000E-01 -3.0398077716000E-01 -1.6570923777000E+00
    67  6.6000000000000E-01 -2.5173967418000E-01 -1.6825238672000E+00
    68  6.7000000000000E-01 -2.0111428700000E-01 -1.7034272553000E+00
    69  6.8000000000000E-01 -1.5224667857000E-01 -1.7197054672000E+00
    70  6.9000000000000E-01 -1.0526808467000E-01 -1.7312856326000E+00
    71  7.0000000000000E-01 -6.0297851672000E-02 -1.7381206084000E+00
    72  7.1000000000000E-01 -1.7443523494000E-02 -1.7401884873000E+00
    73  7.2000000000000E-01  2.3199703037000E-02 -1.7374931395000E+00
    74  7.3000000000000E-01  6.1549288155000E-02 -1.7300642968000E+00
    75  7.4000000000000E-01  9.7535504858000E-02 -1.7179573423000E+00
    76  7.5000000000000E-01  1.3110179780000E-01 -1.7012533273000E+00
    77  7.6000000000000E-01  1.6220472831000E-01 -1.6800582933000E+00
    78  7.7000000000000E-01  1.9081391820000E-01 -1.6545025522000E+00
    79  7.8000000000000E-01  2.1691201036000E-01 -1.6247399234000E+00
    80  7.9000000000000E-01  2.4049450767000E-01 -1.5909467334000E+00
    81  8.0000000000000E-01  2.6156953578000E-01 -1.5533206516000E+00
    82  8.1000000000000E-01  2.8015753181000E-01 -1.5120793696000E+00
    83  8.2000000000000E-01  2.9629086175000E-01 -1.4674591349000E+00
    84  8.3000000000000E-01  3.1001336994000E-01 -1.4197131499000E+00
    85  8.4000000000000E-01  3.2137986392000E-01 -1.3691098476000E+00
    86  8.5000000000000E-01  3.3045553903000E-01 -1.3159310591000E+00
    87  8.6000000000000E-01  3.3731534698000E-01 -1.2604700835000E+00
    88  8.7000000000000E-01  3.4204331310000E-01 -1.2030296787000E+00
    89  8.8000000000000E-01  3.4473180738000E-01 -1.1439199849000E+00
    90  8.9000000000000E-01  3.4548077449000E-01 -1.0834563986000E+00
    91  9.0000000000000E-01  3.4439692827000E-01 -1.0219574109000E+00
    92  9.1000000000000E-01  3.4159291639000E-01 -9.5974242914000E-01
    93  9.2000000000000E-01  3.3718646108000E-01 -8.9712959481000E-01
    94  9.3000000000000E-01  3.3129948172000E-01 -8.3443361627000E-01
    95  9.4000000000000E-01  3.2405720558000E-01 -7.7196363085000E-01
    96  9.5000000000000E-01  3.1558727248000E-01 -7.1002111205000E-01
    97  9.6000000000000E-01  3.0601901095000E-01 -6.4889839924000E-01
    98  9.7000000000000E-01  2.9548215511000E-01 -5.8887536770000E-01
    99  9.8000000000000E-01  2.8410614929000E-01 -5.3021829624000E-01
   100  9.9000000000000E-01  2.7201934076000E-01 -4.7317824572000E-01
   101  1.0000000000000E+00  2.5934807756000E-01 -4.1798919045000E-01
   102  1.0100000000000E+00  2.4621588388000E-01 -3.6486644526000E-01
   103  1.0200000000000E+00  2.3274269441000E-01 -3.1400529158000E-01
   104  1.0300000000000E+00  2.1904464333000E-01 -2.6558104236000E-01
   105  1.0400000000000E+00  2.0523149153000E-01 -2.1974303705000E-01
   106  1.0500000000000E+00  1.9140763598000E-01 -1.7661816417000E-01
   107  1.0600000000000E+00  1.7767094574000E-01 -1.3630852529000E-01
   108  1.0700000000000E+00  1.6411215272000E-01 -9.8890631732000E-02
   109  1.0800000000000E+00  1.5081532193000E-01 -6.4417018460000E-02
   110  1.0900000000000E+00  1.3785403703000E-01 -3.2908230358000E-02
   111  1.1000000000000E+00  1.2529388389000E-01 -4.3593069809000E-03
   112  1.1100000000000E+00  1.1319121626000E-01  2.1262362947000E-02
   113  1.1200000000000E+00  1.0159385528000E-01  4.4014752614000E-02
   114  1.1300000000000E+00  9.0539661011000E-02  6.3980002989000E-02
   115  1.1400000000000E+00  8.0059548298000E-02  8.1253779519000E-02
   116  1.1500000000000E+00  7.0178027898000E-02  9.5944258573000E-02
   117  1.1600000000000E+00  6.0913877066000E-02  1.0817092630000E-01
   118  1.1700000000000E+00  5.2277972911000E-02  1.1806444943000E-01
   119  1.1800000000000E+00  4.4275827942000E-02  1.2576336501000E-01
   120  1.1900000000000E+00  3.6907920893000E-02  1.3141335204000E-01
   121  1.2000000000000E+00  3.0169455982000E-02  1.3516639388000E-01
   122  1.2100000000000E+00  2.4049966857000E-02  1.3717746975000E-01
   123  1.2200000000000E+00  1.8535405677000E-02  1.3760421344000E-01
   124  1.2300000000000E+00  1.3608222948000E-02  1.3660757234000E-01
   125  1.2400000000000E+00  9.2462525187000E-03  1.3434467287000E-01
   126  1.2500000000000E+00  5.4250931276000E-03  1.3097199143000E-01
   127  1.2600000000000E+00  2.1178392149000E-03  1.2664614208000E-01
   128  1.2700000000000E+00 -7.0498250817000E-04  1.2151463183000E-01
   129  1.2800000000000E+00 -3.0741223378000E-03  1.1572086772000E-01
   130  1.2900000000000E+00 -5.0219213386000E-03  1.0940654320000E-01
   131  1.3000000000000E+00 -6.5813120657000E-03  1.0269865902000E-01
   132  1.3100000000000E+00 -7.7856465031000E-03  9.5719276415000E-02
   133  1.3200000000000E+00 -8.6690896217000E-03  8.8586169889000E-02
   134  1.3300000000000E+00 -9.2644836293000E-03  8.1398654142000E-02
   135  1.3400000000000E+00 -9.6048902115000E-03  7.4252946663000E-02
   136  1.3500000000000E+00 -9.7227440263000E-03  6.7234914249000E-02
   137  1.3600000000000E+00 -9.6482970397000E-03  6.0414590879000E-02
   138  1.3700000000000E+00 -9.4121066869000E-03  5.3859946289000E-02
   139  1.3800000000000E+00 -9.0418830329000E-03  4.7621579554000E-02
   140  1.3900000000000E+00 -8.5639477430000E-03  4.1742209877000E-02
   141  1.4000000000000E+00 -8.0041185897000E-03  3.6259122021000E-02
   142  1.4100000000000E+00 -7.3839624467000E-03  3.1191759495000E-02
   143  1.4200000000000E+00 -6.7254513051000E-03  2.6559206347000E-02
   144  1.4300000000000E+00 -6.0468907797000E-03  2.2366437294000E-02
   145  1.4400000000000E+00 -5.3649206521000E-03  1.8612860966000E-02
   146  1.4500000000000E+00 -4.6951359121000E-03  1.5292748729000E-02
   147  1.4600000000000E+00 -4.0488993831000E-03  1.2389858386000E-02
   148  1.4700000000000E+00 -3.4382958025000E-03  9.8878723282000E-03
   149  1.4800000000000E+00 -2.8706941962000E-03  7.7611144914000E-03
   150  1.4900000000000E+00 -2.3535096735000E-03  5.9836504565000E-03
   151  1.5000000000000E+00 -1.8913423565000E-03  4.5248179563000E-03
   152  1.5100000000000E+00 -1.4869779337000E-03  3.3530144787000E-03
   153  1.5200000000000E+00 -1.1423399975000E-03  2.4344822213000E-03
   154  1.5300000000000E+00 -8.5613335034000E-04  1.7364842441000E-03
   155  1.5400000000000E+00 -6.2766555083000E-04  1.2240661293000E-03
   156  1.5500000000000E+00 -4.5230517597000E-04  8.6679161532000E-04
   157  1.5600000000000E+00 -3.2631882946000E-04  6.3165053834000E-04
   158  1.5700000000000E+00 -2.4271924586000E-04  4.9192348484000E-04
   159  1.5800000000000E+00 -1.9474044037000E-04  4.1955389453000E-04
   160  1.5900000000000E+00 -1.7825661552000E-04  4.0480624893000E-04
   161  1.6000000000000E+00 -1.7746905258000E-04  4.1096548871000E-04
   162  1.6100000000000E+00 -1.2890569002000E-04  3.0004996431000E-04
   163  1.6200000000000E+00 -3.5768940319000E-05  8.3589538276000E-05
   164  1.6300000000000E+00  1.0336834157000E-05 -2.3990382405000E-05
   165  1.6400000000000E+00  5.6365364703000E-06 -1.3081632471000E-05
   166  1.6500000000000E+00  0.0000000000000E+00  0.0000000000000E+00
   167  1.6600000000000E+00  0.0000000000000E+00  0.0000000000000E+00
   168  1.6700000000000E+00  0.0000000000000E+00  0.0000000000000E+00
   169  1.6800000000000E+00  0.0000000000000E+00  0.0000000000000E+00
   170  1.6900000000000E+00  0.0000000000000E+00  0.0000000000000E+00
   171  1.7000000000000E+00  0.0000000000000E+00  0.0000000000000E+00
   172  1.7100000000000E+00  0.0000000000000E+00  0.0000000000000E+00
   173  1.7200000000000E+00  0.0000000000000E+00  0.0000000000000E+00
   174  1.7300000000000E+00  0.0000000000000E+00  0.0000000000000E+00
   175  1.7400000000000E+00  0.0000000000000E+00  0.0000000000000E+00
   176  1.7500000000000E+00  0.0000000000000E+00  0.0000000000000E+00
   177  1.7600000000000E+00  0.0000000000000E+00  0.0000000000000E+00
   178  1.7700000000000E+00  0.0000000000000E+00  0.0000000000000E+00
   179  1.7800000000000E+00  0.0000000000000E+00  0.0000000000000E+00
   180  1.7900000000000E+00  0.0000000000000E+00  0.0000000000000E+00
   181  1.8000000000000E+00  0.0000000000000E+00  0.0000000000000E+00
   182  1.8100000000000E+00  0.0000000000000E+00  0.0000000000000E+00
   183  1.8200000000000E+00  0.0000000000000E+00  0.0000000000000E+00
   184  1.8300000000000E+00  0.0000000000000E+00  0.0000000000000E+00
   185  1.8400000000000E+00  0.0000000000000E+00  0.0000000000000E+00
   186  1.8500000000000E+00  0.0000000000000E+00  0.0000000000000E+00
   187  1.8600000000000E+00  0.0000000000000E+00  0.0000000000000E+00
   188  1.8700000000000E+00  0.0000000000000E+00  0.0000000000000E+00
   189  1.8800000000000E+00  0.0000000000000E+00  0.0000000000000E+00
   190  1.8900000000000E+00  0.0000000000000E+00  0.0000000000000E+00
   191  1.9000000000000E+00  0.0000000000000E+00  0.0000000000000E+00
   192  1.9100000000000E+00  0.0000000000000E+00  0.0000000000000E+00
   193  1.9200000000000E+00  0.0000000000000E+00  0.0000000000000E+00
   194  1.9300000000000E+00  0.0000000000000E+00  0.0000000000000E+00
   195  1.9400000000000E+00  0.0000000000000E+00  0.0000000000000E+00
   196  1.9500000000000E+00  0.0000000000000E+00  0.0000000000000E+00
   197  1.9600000000000E+00  0.0000000000000E+00  0.0000000000000E+00
   198  1.9700000000000E+00  0.0000000000000E+00  0.0000000000000E+00
   199  1.9800000000000E+00  0.0000000000000E+00  0.0000000000000E+00
   200  1.9900000000000E+00  0.0000000000000E+00  0.0000000000000E+00
   201  2.0000000000000E+00  0.0000000000000E+00  0.0000000000000E+00
   202  2.0100000000000E+00  0.0000000000000E+00  0.0000000000000E+00
   203  2.0200000000000E+00  0.0000000000000E+00  0.0000000000000E+00
   204  2.0300000000000E+00  0.0000000000000E+00  0.0000000000000E+00
   205  2.0400000000000E+00  0.0000000000000E+00  0.0000000000000E+00
   206  2.0500000000000E+00  0.0000000000000E+00  0.0000000000000E+00
   207  2.0600000000000E+00  0.0000000000000E+00  0.0000000000000E+00
   208  2.0700000000000E+00  0.0000000000000E+00  0.0000000000000E+00
   209  2.0800000000000E+00  0.0000000000000E+00  0.0000000000000E+00
   210  2.0900000000000E+00  0.0000000000000E+00  0.0000000000000E+00
   211  2.1000000000000E+00  0.0000000000000E+00  0.0000000000000E+00
   212  2.1100000000000E+00  0.0000000000000E+00  0.0000000000000E+00
   213  2.1200000000000E+00  0.0000000000000E+00  0.0000000000000E+00
   214  2.1300000000000E+00  0.0000000000000E+00  0.0000000000000E+00
   215  2.1400000000000E+00  0.0000000000000E+00  0.0000000000000E+00
   216  2.1500000000000E+00  0.0000000000000E+00  0.0000000000000E+00
   217  2.1600000000000E+00  0.0000000000000E+00  0.0000000000000E+00
   218  2.1700000000000E+00  0.0000000000000E+00  0.0000000000000E+00
   219  2.1800000000000E+00  0.0000000000000E+00  0.0000000000000E+00
   220  2.1900000000000E+00  0.0000000000000E+00  0.0000000000000E+00
   221  2.2000000000000E+00  0.0000000000000E+00  0.0000000000000E+00
   222  2.2100000000000E+00  0.0000000000000E+00  0.0000000000000E+00
   223  2.2200000000000E+00  0.0000000000000E+00  0.0000000000000E+00
   224  2.2300000000000E+00  0.0000000000000E+00  0.0000000000000E+00
   225  2.2400000000000E+00  0.0000000000000E+00  0.0000000000000E+00
   226  2.2500000000000E+00  0.0000000000000E+00  0.0000000000000E+00
   227  2.2600000000000E+00  0.0000000000000E+00  0.0000000000000E+00
   228  2.2700000000000E+00  0.0000000000000E+00  0.0000000000000E+00
   229  2.2800000000000E+00  0.0000000000000E+00  0.0000000000000E+00
   230  2.2900000000000E+00  0.0000000000000E+00  0.0000000000000E+00
   231  2.3000000000000E+00  0.0000000000000E+00  0.0000000000000E+00
   232  2.3100000000000E+00  0.0000000000000E+00  0.0000000000000E+00
   233  2.3200000000000E+00  0.0000000000000E+00  0.0000000000000E+00
   234  2.3300000000000E+00  0.0000000000000E+00  0.0000000000000E+00
   235  2.3400000000000E+00  0.0000000000000E+00  0.0000000000000E+00
   236  2.3500000000000E+00  0.0000000000000E+00  0.0000000000000E+00
   237  2.3600000000000E+00  0.0000000000000E+00  0.0000000000000E+00
   238  2.3700000000000E+00  0.0000000000000E+00  0.0000000000000E+00
   239  2.3800000000000E+00  0.0000000000000E+00  0.0000000000000E+00
   240  2.3900000000000E+00  0.0000000000000E+00  0.0000000000000E+00
   241  2.4000000000000E+00  0.0000000000000E+00  0.0000000000000E+00
   242  2.4100000000000E+00  0.0000000000000E+00  0.0000000000000E+00
   243  2.4200000000000E+00  0.0000000000000E+00  0.0000000000000E+00
   244  2.4300000000000E+00  0.0000000000000E+00  0.0000000000000E+00
   245  2.4400000000000E+00  0.0000000000000E+00  0.0000000000000E+00
   246  2.4500000000000E+00  0.0000000000000E+00  0.0000000000000E+00
   247  2.4600000000000E+00  0.0000000000000E+00  0.0000000000000E+00
   248  2.4700000000000E+00  0.0000000000000E+00  0.0000000000000E+00
   249  2.4800000000000E+00  0.0000000000000E+00  0.0000000000000E+00
   250  2.4900000000000E+00  0.0000000000000E+00  0.0000000000000E+00
   251  2.5000000000000E+00  0.0000000000000E+00  0.0000000000000E+00
   252  2.5100000000000E+00  0.0000000000000E+00  0.0000000000000E+00
   253  2.5200000000000E+00  0.0000000000000E+00  0.0000000000000E+00
   254  2.5300000000000E+00  0.0000000000000E+00  0.0000000000000E+00
   255  2.5400000000000E+00  0.0000000000000E+00  0.0000000000000E+00
   256  2.5500000000000E+00  0.0000000000000E+00  0.0000000000000E+00
   257  2.5600000000000E+00  0.0000000000000E+00  0.0000000000000E+00
   258  2.5700000000000E+00  0.0000000000000E+00  0.0000000000000E+00
   259  2.5800000000000E+00  0.0000000000000E+00  0.0000000000000E+00
   260  2.5900000000000E+00  0.0000000000000E+00  0.0000000000000E+00
   261  2.6000000000000E+00  0.0000000000000E+00  0.0000000000000E+00
   262  2.6100000000000E+00  0.0000000000000E+00  0.0000000000000E+00
   263  2.6200000000000E+00  0.0000000000000E+00  0.0000000000000E+00
   264  2.6300000000000E+00  0.0000000000000E+00  0.0000000000000E+00
   265  2.6400000000000E+00  0.0000000000000E+00  0.0000000000000E+00
   266  2.6500000000000E+00  0.0000000000000E+00  0.0000000000000E+00
   267  2.6600000000000E+00  0.0000000000000E+00  0.0000000000000E+00
   268  2.6700000000000E+00  0.0000000000000E+00  0.0000000000000E+00
   269  2.6800000000000E+00  0.0000000000000E+00  0.0000000000000E+00
   270  2.6900000000000E+00  0.0000000000000E+00  0.0000000000000E+00
   271  2.7000000000000E+00  0.0000000000000E+00  0.0000000000000E+00
   272  2.7100000000000E+00  0.0000000000000E+00  0.0000000000000E+00
   273  2.7200000000000E+00  0.0000000000000E+00  0.0000000000000E+00
   274  2.7300000000000E+00  0.0000000000000E+00  0.0000000000000E+00
   275  2.7400000000000E+00  0.0000000000000E+00  0.0000000000000E+00
   276  2.7500000000000E+00  0.0000000000000E+00  0.0000000000000E+00
   277  2.7600000000000E+00  0.0000000000000E+00  0.0000000000000E+00
   278  2.7700000000000E+00  0.0000000000000E+00  0.0000000000000E+00
   279  2.7800000000000E+00  0.0000000000000E+00  0.0000000000000E+00
   280  2.7900000000000E+00  0.0000000000000E+00  0.0000000000000E+00
   281  2.8000000000000E+00  0.0000000000000E+00  0.0000000000000E+00
   282  2.8100000000000E+00  0.0000000000000E+00  0.0000000000000E+00
   283  2.8200000000000E+00  0.0000000000000E+00  0.0000000000000E+00
   284  2.8300000000000E+00  0.0000000000000E+00  0.0000000000000E+00
   285  2.8400000000000E+00  0.0000000000000E+00  0.0000000000000E+00
   286  2.8500000000000E+00  0.0000000000000E+00  0.0000000000000E+00
   287  2.8600000000000E+00  0.0000000000000E+00  0.0000000000000E+00
   288  2.8700000000000E+00  0.0000000000000E+00  0.0000000000000E+00
   289  2.8800000000000E+00  0.0000000000000E+00  0.0000000000000E+00
   290  2.8900000000000E+00  0.0000000000000E+00  0.0000000000000E+00
   291  2.9000000000000E+00  0.0000000000000E+00  0.0000000000000E+00
   292  2.9100000000000E+00  0.0000000000000E+00  0.0000000000000E+00
   293  2.9200000000000E+00  0.0000000000000E+00  0.0000000000000E+00
   294  2.9300000000000E+00  0.0000000000000E+00  0.0000000000000E+00
   295  2.9400000000000E+00  0.0000000000000E+00  0.0000000000000E+00
   296  2.9500000000000E+00  0.0000000000000E+00  0.0000000000000E+00
   297  2.9600000000000E+00  0.0000000000000E+00  0.0000000000000E+00
   298  2.9700000000000E+00  0.0000000000000E+00  0.0000000000000E+00
   299  2.9800000000000E+00  0.0000000000000E+00  0.0000000000000E+00
   300  2.9900000000000E+00  0.0000000000000E+00  0.0000000000000E+00
   301  3.0000000000000E+00  0.0000000000000E+00  0.0000000000000E+00
   302  3.0100000000000E+00  0.0000000000000E+00  0.0000000000000E+00
   303  3.0200000000000E+00  0.0000000000000E+00  0.0000000000000E+00
   304  3.0300000000000E+00  0.0000000000000E+00  0.0000000000000E+00
   305  3.0400000000000E+00  0.0000000000000E+00  0.0000000000000E+00
   306  3.0500000000000E+00  0.0000000000000E+00  0.0000000000000E+00
   307  3.0600000000000E+00  0.0000000000000E+00  0.0000000000000E+00
   308  3.0700000000000E+00  0.0000000000000E+00  0.0000000000000E+00
   309  3.0800000000000E+00  0.0000000000000E+00  0.0000000000000E+00
   310  3.0900000000000E+00  0.0000000000000E+00  0.0000000000000E+00
   311  3.1000000000000E+00  0.0000000000000E+00  0.0000000000000E+00
   312  3.1100000000000E+00  0.0000000000000E+00  0.0000000000000E+00
   313  3.1200000000000E+00  0.0000000000000E+00  0.0000000000000E+00
   314  3.1300000000000E+00  0.0000000000000E+00  0.0000000000000E+00
   315  3.1400000000000E+00  0.0000000000000E+00  0.0000000000000E+00
   316  3.1500000000000E+00  0.0000000000000E+00  0.0000000000000E+00
   317  3.1600000000000E+00  0.0000000000000E+00  0.0000000000000E+00
   318  3.1700000000000E+00  0.0000000000000E+00  0.0000000000000E+00
   319  3.1800000000000E+00  0.0000000000000E+00  0.0000000000000E+00
   320  3.1900000000000E+00  0.0000000000000E+00  0.0000000000000E+00
   321  3.2000000000000E+00  0.0000000000000E+00  0.0000000000000E+00
   322  3.2100000000000E+00  0.0000000000000E+00  0.0000000000000E+00
   323  3.2200000000000E+00  0.0000000000000E+00  0.0000000000000E+00
   324  3.2300000000000E+00  0.0000000000000E+00  0.0000000000000E+00
   325  3.2400000000000E+00  0.0000000000000E+00  0.0000000000000E+00
   326  3.2500000000000E+00  0.0000000000000E+00  0.0000000000000E+00
   327  3.2600000000000E+00  0.0000000000000E+00  0.0000000000000E+00
   328  3.2700000000000E+00  0.0000000000000E+00  0.0000000000000E+00
   329  3.2800000000000E+00  0.0000000000000E+00  0.0000000000000E+00
   330  3.2900000000000E+00  0.0000000000000E+00  0.0000000000000E+00
   331  3.3000000000000E+00  0.0000000000000E+00  0.0000000000000E+00
   332  3.3100000000000E+00  0.0000000000000E+00  0.0000000000000E+00
   333  3.3200000000000E+00  0.0000000000000E+00  0.0000000000000E+00
   334  3.3300000000000E+00  0.0000000000000E+00  0.0000000000000E+00
   335  3.3400000000000E+00  0.0000000000000E+00  0.0000000000000E+00
   336  3.3500000000000E+00  0.0000000000000E+00  0.0000000000000E+00
   337  3.3600000000000E+00  0.0000000000000E+00  0.0000000000000E+00
   338  3.3700000000000E+00  0.0000000000000E+00  0.0000000000000E+00
   339  3.3800000000000E+00  0.0000000000000E+00  0.0000000000000E+00
   340  3.3900000000000E+00  0.0000000000000E+00  0.0000000000000E+00
   341  3.4000000000000E+00  0.0000000000000E+00  0.0000000000000E+00
   342  3.4100000000000E+00  0.0000000000000E+00  0.0000000000000E+00
   343  3.4200000000000E+00  0.0000000000000E+00  0.0000000000000E+00
   344  3.4300000000000E+00  0.0000000000000E+00  0.0000000000000E+00
   345  3.4400000000000E+00  0.0000000000000E+00  0.0000000000000E+00
   346  3.4500000000000E+00  0.0000000000000E+00  0.0000000000000E+00
   347  3.4600000000000E+00  0.0000000000000E+00  0.0000000000000E+00
   348  3.4700000000000E+00  0.0000000000000E+00  0.0000000000000E+00
   349  3.4800000000000E+00  0.0000000000000E+00  0.0000000000000E+00
   350  3.4900000000000E+00  0.0000000000000E+00  0.0000000000000E+00
   351  3.5000000000000E+00  0.0000000000000E+00  0.0000000000000E+00
   352  3.5100000000000E+00  0.0000000000000E+00  0.0000000000000E+00
   353  3.5200000000000E+00  0.0000000000000E+00  0.0000000000000E+00
   354  3.5300000000000E+00  0.0000000000000E+00  0.0000000000000E+00
   355  3.5400000000000E+00  0.0000000000000E+00  0.0000000000000E+00
   356  3.5500000000000E+00  0.0000000000000E+00  0.0000000000000E+00
   357  3.5600000000000E+00  0.0000000000000E+00  0.0000000000000E+00
   358  3.5700000000000E+00  0.0000000000000E+00  0.0000000000000E+00
   359  3.5800000000000E+00  0.0000000000000E+00  0.0000000000000E+00
   360  3.5900000000000E+00  0.0000000000000E+00  0.0000000000000E+00
   361  3.6000000000000E+00  0.0000000000000E+00  0.0000000000000E+00
   362  3.6100000000000E+00  0.0000000000000E+00  0.0000000000000E+00
   363  3.6200000000000E+00  0.0000000000000E+00  0.0000000000000E+00
   364  3.6300000000000E+00  0.0000000000000E+00  0.0000000000000E+00
   365  3.6400000000000E+00  0.0000000000000E+00  0.0000000000000E+00
   366  3.6500000000000E+00  0.0000000000000E+00  0.0000000000000E+00
   367  3.6600000000000E+00  0.0000000000000E+00  0.0000000000000E+00
   368  3.6700000000000E+00  0.0000000000000E+00  0.0000000000000E+00
   369  3.6800000000000E+00  0.0000000000000E+00  0.0000000000000E+00
   370  3.6900000000000E+00  0.0000000000000E+00  0.0000000000000E+00
   371  3.7000000000000E+00  0.0000000000000E+00  0.0000000000000E+00
   372  3.7100000000000E+00  0.0000000000000E+00  0.0000000000000E+00
   373  3.7200000000000E+00  0.0000000000000E+00  0.0000000000000E+00
   374  3.7300000000000E+00  0.0000000000000E+00  0.0000000000000E+00
   375  3.7400000000000E+00  0.0000000000000E+00  0.0000000000000E+00
   376  3.7500000000000E+00  0.0000000000000E+00  0.0000000000000E+00
   377  3.7600000000000E+00  0.0000000000000E+00  0.0000000000000E+00
   378  3.7700000000000E+00  0.0000000000000E+00  0.0000000000000E+00
   379  3.7800000000000E+00  0.0000000000000E+00  0.0000000000000E+00
   380  3.7900000000000E+00  0.0000000000000E+00  0.0000000000000E+00
   381  3.8000000000000E+00  0.0000000000000E+00  0.0000000000000E+00
   382  3.8100000000000E+00  0.0000000000000E+00  0.0000000000000E+00
   383  3.8200000000000E+00  0.0000000000000E+00  0.0000000000000E+00
   384  3.8300000000000E+00  0.0000000000000E+00  0.0000000000000E+00
   385  3.8400000000000E+00  0.0000000000000E+00  0.0000000000000E+00
   386  3.8500000000000E+00  0.0000000000000E+00  0.0000000000000E+00
   387  3.8600000000000E+00  0.0000000000000E+00  0.0000000000000E+00
   388  3.8700000000000E+00  0.0000000000000E+00  0.0000000000000E+00
   389  3.8800000000000E+00  0.0000000000000E+00  0.0000000000000E+00
   390  3.8900000000000E+00  0.0000000000000E+00  0.0000000000000E+00
   391  3.9000000000000E+00  0.0000000000000E+00  0.0000000000000E+00
   392  3.9100000000000E+00  0.0000000000000E+00  0.0000000000000E+00
   393  3.9200000000000E+00  0.0000000000000E+00  0.0000000000000E+00
   394  3.9300000000000E+00  0.0000000000000E+00  0.0000000000000E+00
   395  3.9400000000000E+00  0.0000000000000E+00  0.0000000000000E+00
   396  3.9500000000000E+00  0.0000000000000E+00  0.0000000000000E+00
   397  3.9600000000000E+00  0.0000000000000E+00  0.0000000000000E+00
   398  3.9700000000000E+00  0.0000000000000E+00  0.0000000000000E+00
   399  3.9800000000000E+00  0.0000000000000E+00  0.0000000000000E+00
   400  3.9900000000000E+00  0.0000000000000E+00  0.0000000000000E+00
   401  4.0000000000000E+00  0.0000000000000E+00  0.0000000000000E+00
   402  4.0100000000000E+00  0.0000000000000E+00  0.0000000000000E+00
   403  4.0200000000000E+00  0.0000000000000E+00  0.0000000000000E+00
   404  4.0300000000000E+00  0.0000000000000E+00  0.0000000000000E+00
   405  4.0400000000000E+00  0.0000000000000E+00  0.0000000000000E+00
   406  4.0500000000000E+00  0.0000000000000E+00  0.0000000000000E+00
   407  4.0600000000000E+00  0.0000000000000E+00  0.0000000000000E+00
   408  4.0700000000000E+00  0.0000000000000E+00  0.0000000000000E+00
   409  4.0800000000000E+00  0.0000000000000E+00  0.0000000000000E+00
   410  4.0900000000000E+00  0.0000000000000E+00  0.0000000000000E+00
   411  4.1000000000000E+00  0.0000000000000E+00  0.0000000000000E+00
   412  4.1100000000000E+00  0.0000000000000E+00  0.0000000000000E+00
   413  4.1200000000000E+00  0.0000000000000E+00  0.0000000000000E+00
   414  4.1300000000000E+00  0.0000000000000E+00  0.0000000000000E+00
   415  4.1400000000000E+00  0.0000000000000E+00  0.0000000000000E+00
   416  4.1500000000000E+00  0.0000000000000E+00  0.0000000000000E+00
   417  4.1600000000000E+00  0.0000000000000E+00  0.0000000000000E+00
   418  4.1700000000000E+00  0.0000000000000E+00  0.0000000000000E+00
   419  4.1800000000000E+00  0.0000000000000E+00  0.0000000000000E+00
   420  4.1900000000000E+00  0.0000000000000E+00  0.0000000000000E+00
   421  4.2000000000000E+00  0.0000000000000E+00  0.0000000000000E+00
   422  4.2100000000000E+00  0.0000000000000E+00  0.0000000000000E+00
   423  4.2200000000000E+00  0.0000000000000E+00  0.0000000000000E+00