O   ONCVPSP-2.1.1   r_core=    1.29195 1.47310
    8.0000   6.0000   150105   zatom,zion,pspd
    8   11   1   4   600   0   pspcod,pspxc,lmax,lloc,mmax,r2well
    5.99000000   0.00000000   0.00000000   rchrg fchrg qchrg
    2   2   0   0   0   nproj
    1   1   extension_switch
       0                         9.7571519485000E+00  1.3761267206500E+00
     1  0.0000000000000E+00  0.0000000000000E+00  0.0000000000000E+00
     2  1.0000000000000E-02 -8.2277987587000E-02 -1.1723087215000E-02
     3  2.0000000000000E-02 -1.6449650094000E-01 -2.2970588285000E-02
     4  3.0000000000000E-02 -2.4659331589000E-01 -3.3277762775000E-02
     5  4.0000000000000E-02 -3.2850076507000E-01 -4.2201369170000E-02
     6  5.0000000000000E-02 -4.1014315697000E-01 -4.9329936250000E-02
     7  6.0000000000000E-02 -4.9143436126000E-01 -5.4293469599000E-02
     8  7.0000000000000E-02 -5.7227561145000E-01 -5.6772419538000E-02
     9  8.0000000000000E-02 -6.5255357242000E-01 -5.6505748973000E-02
    10  9.0000000000000E-02 -7.3213871601000E-01 -5.3297954463000E-02
    11  1.0000000000000E-01 -8.1088404273000E-01 -4.7024911330000E-02
    12  1.1000000000000E-01 -8.8862418182000E-01 -3.7638432778000E-02
    13  1.2000000000000E-01 -9.6517489579000E-01 -2.5169454710000E-02
    14  1.3000000000000E-01 -1.0403330086000E+00 -9.7297804400000E-03
    15  1.4000000000000E-01 -1.1138767696000E+00  8.4876559486000E-03
    16  1.5000000000000E-01 -1.1855666583000E+00  2.9210025055000E-02
    17  1.6000000000000E-01 -1.2551466268000E+00  5.2087327705000E-02
    18  1.7000000000000E-01 -1.3223457701000E+00  7.6696576823000E-02
    19  1.8000000000000E-01 -1.3868804065000E+00  1.0254737811000E-01
    20  1.9000000000000E-01 -1.4484565448000E+00  1.2908882978000E-01
    21  2.0000000000000E-01 -1.5067727038000E+00  1.5571763119000E-01
    22  2.1000000000000E-01 -1.5615230499000E+00  1.8178728239000E-01
    23  2.2000000000000E-01 -1.6124008059000E+00  2.0661822255000E-01
    24  2.3000000000000E-01 -1.6591018874000E+00  2.2950875795000E-01
    25  2.4000000000000E-01 -1.7013287065000E+00  2.4974659019000E-01
    26  2.5000000000000E-01 -1.7387940878000E+00  2.6662075364000E-01
    27  2.6000000000000E-01 -1.7712252542000E+00  2.7943382524000E-01
    28  2.7000000000000E-01 -1.7983677872000E+00  2.8751410085000E-01
    29  2.8000000000000E-01 -1.8199895278000E+00  2.9022762150000E-01
    30  2.9000000000000E-01 -1.8358843512000E+00  2.8698983512000E-01
    31  3.0000000000000E-01 -1.8458757490000E+00  2.7727667838000E-01
    32  3.1000000000000E-01 -1.8498201626000E+00  2.6063490065000E-01
    33  3.2000000000000E-01 -1.8476100093000E+00  2.3669144662000E-01
    34  3.3000000000000E-01 -1.8391763180000E+00  2.0516162976000E-01
    35  3.4000000000000E-01 -1.8244910913000E+00  1.6585646477000E-01
    36  3.5000000000000E-01 -1.8035689946000E+00  1.1868792319000E-01
    37  3.6000000000000E-01 -1.7764688338000E+00  6.3673539750000E-02
    38  3.7000000000000E-01 -1.7432942635000E+00  9.3865644130000E-04
    39  3.8000000000000E-01 -1.7041941790000E+00 -6.9282296205000E-02
    40  3.9000000000000E-01 -1.6593624450000E+00 -1.4664653237000E-01
    41  4.0000000000000E-01 -1.6090370910000E+00 -2.3070525508000E-01
    42  4.1000000000000E-01 -1.5534989864000E+00 -3.2090755014000E-01
    43  4.2000000000000E-01 -1.4930699667000E+00 -4.1660590836000E-01
    44  4.3000000000000E-01 -1.4281104400000E+00 -5.1706326588000E-01
    45  4.4000000000000E-01 -1.3590165014000E+00 -6.2146146368000E-01
    46  4.5000000000000E-01 -1.2862165869000E+00 -7.2891100660000E-01
    47  4.6000000000000E-01 -1.2101677086000E+00 -8.3846198150000E-01
    48  4.7000000000000E-01 -1.1313513155000E+00 -9.4911597183000E-01
    49  4.8000000000000E-01 -1.0502688403000E+00 -1.0598387764000E+00
    50  4.9000000000000E-01 -9.6743710159000E-01 -1.1695734189000E+00
    51  5.0000000000000E-01 -8.8338307362000E-01 -1.2772547958000E+00
    52  5.1000000000000E-01 -7.9863905513000E-01 -1.3818230208000E+00
    53  5.2000000000000E-01 -7.1373774907000E-01 -1.4822368409000E+00
    54  5.3000000000000E-01 -6.2920651981000E-01 -1.5774891053000E+00
    55  5.4000000000000E-01 -5.4556280508000E-01 -1.6666187728000E+00
    56  5.5000000000000E-01 -4.6330924845000E-01 -1.7487234696000E+00
    57  5.6000000000000E-01 -3.8292814427000E-01 -1.8229735575000E+00
    58  5.7000000000000E-01 -3.0487830138000E-01 -1.8886194365000E+00
    59  5.8000000000000E-01 -2.2958906110000E-01 -1.9450060422000E+00
    60  5.9000000000000E-01 -1.5745833560000E-01 -1.9915764523000E+00
    61  6.0000000000000E-01 -8.8847539142000E-02 -2.0278831780000E+00
    62  6.1000000000000E-01 -2.4079508545000E-02 -2.0535914046000E+00
    63  6.2000000000000E-01  3.6563691834000E-02 -2.0684822557000E+00
    64  6.3000000000000E-01  9.2844371601000E-02 -2.0724589319000E+00
    65  6.4000000000000E-01  1.4456869600000E-01 -2.0655426479000E+00
    66  6.5000000000000E-01  1.9158861786000E-01 -2.0478740211000E+00
    67  6.6000000000000E-01  2.3380285278000E-01 -2.0197115502000E+00
    68  6.7000000000000E-01  2.7115554880000E-01 -1.9814248238000E+00
    69  6.8000000000000E-01  3.0363571638000E-01 -1.9334892505000E+00
    70  6.9000000000000E-01  3.3127718718000E-01 -1.8764808008000E+00
    71  7.0000000000000E-01  3.5415591151000E-01 -1.8110656211000E+00
    72  7.1000000000000E-01  3.7238794759000E-01 -1.7379906968000E+00
    73  7.2000000000000E-01  3.8612701355000E-01 -1.6580733899000E+00
    74  7.3000000000000E-01  3.9556147997000E-01 -1.5721902388000E+00
    75  7.4000000000000E-01  4.0091144918000E-01 -1.4812642140000E+00
    76  7.5000000000000E-01  4.0242475349000E-01 -1.3862522622000E+00
    77  7.6000000000000E-01  4.0037331823000E-01 -1.2881324457000E+00
    78  7.7000000000000E-01  3.9504921005000E-01 -1.1878908963000E+00
    79  7.8000000000000E-01  3.8676054393000E-01 -1.0865088556000E+00
    80  7.9000000000000E-01  3.7582731451000E-01 -9.8494996663000E-01
    81  8.0000000000000E-01  3.6257720433000E-01 -8.8414798922000E-01
    82  8.1000000000000E-01  3.4734141910000E-01 -7.8499509134000E-01
    83  8.2000000000000E-01  3.3045059692000E-01 -6.8833085835000E-01
    84  8.3000000000000E-01  3.1223083453000E-01 -5.9493213952000E-01
    85  8.4000000000000E-01  2.9299986887000E-01 -5.0550383294000E-01
    86  8.5000000000000E-01  2.7306344758000E-01 -4.2067068746000E-01
    87  8.6000000000000E-01  2.5271191615000E-01 -3.4097017799000E-01
    88  8.7000000000000E-01  2.3221704416000E-01 -2.6684648767000E-01
    89  8.8000000000000E-01  2.1182910699000E-01 -1.9864560686000E-01
    90  8.9000000000000E-01  1.9177423337000E-01 -1.3661153627000E-01
    91  9.0000000000000E-01  1.7225200095000E-01 -8.0883449121000E-02
    92  9.1000000000000E-01  1.5343329037000E-01 -3.1493861467000E-02
    93  9.2000000000000E-01  1.3546088278000E-01  1.1620322833000E-02
    94  9.3000000000000E-01  1.1845195585000E-01  4.8599589644000E-02
    95  9.4000000000000E-01  1.0249965400000E-01  7.9650226738000E-02
    96  9.5000000000000E-01  8.7673842851000E-02  1.0503788587000E-01
    97  9.6000000000000E-01  7.4022153762000E-02  1.2508039801000E-01
    98  9.7000000000000E-01  6.1571422473000E-02  1.4013995079000E-01
    99  9.8000000000000E-01  5.0329214779000E-02  1.5061541504000E-01
   100  9.9000000000000E-01  4.0284462837000E-02  1.5693366067000E-01
   101  1.0000000000000E+00  3.1410783526000E-02  1.5954043230000E-01
   102  1.0100000000000E+00  2.3667878040000E-02  1.5889246200000E-01
   103  1.0200000000000E+00  1.7003522416000E-02  1.5544945597000E-01
   104  1.0300000000000E+00  1.1355567187000E-02  1.4966651822000E-01
   105  1.0400000000000E+00  6.6538808501000E-03  1.4199014613000E-01
   106  1.0500000000000E+00  2.8220678737000E-03  1.3284299597000E-01
   107  1.0600000000000E+00 -2.2001240793000E-04  1.2262519169000E-01
   108  1.0700000000000E+00 -2.5547866842000E-03  1.1170778401000E-01
   109  1.0800000000000E+00 -4.2654366871000E-03  1.0042928223000E-01
   110  1.0900000000000E+00 -5.4349451843000E-03  8.9095504256000E-02
   111  1.1000000000000E+00 -6.1429431867000E-03  7.7963775928000E-02
   112  1.1100000000000E+00 -6.4660691080000E-03  6.7255547029000E-02
   113  1.1200000000000E+00 -6.4767064284000E-03  5.7152141457000E-02
   114  1.1300000000000E+00 -6.2432624449000E-03  4.7799764163000E-02
   115  1.1400000000000E+00 -5.8262992394000E-03  3.9294804857000E-02
   116  1.1500000000000E+00 -5.2807905609000E-03  3.1701123437000E-02
   117  1.1600000000000E+00 -4.6556441299000E-03  2.5050278343000E-02
   118  1.1700000000000E+00 -3.9940297562000E-03  1.9344675342000E-02
   119  1.1800000000000E+00 -3.3299352117000E-03  1.4551822257000E-02
   120  1.1900000000000E+00 -2.6921631841000E-03  1.0621676019000E-02
   121  1.2000000000000E+00 -2.1041805481000E-03  7.4866418173000E-03
   122  1.2100000000000E+00 -1.5819270303000E-03  5.0616443312000E-03
   123  1.2200000000000E+00 -1.1356467997000E-03  3.2542385947000E-03
   124  1.2300000000000E+00 -7.7141771203000E-04  1.9673338834000E-03
   125  1.2400000000000E+00 -4.9002008278000E-04  1.1012904675000E-03
   126  1.2500000000000E+00 -2.8685599057000E-04  5.6303386455000E-04
   127  1.2600000000000E+00 -1.5440700844000E-04  2.6418408232000E-04
   128  1.2700000000000E+00 -8.1295680504000E-05  1.2416036016000E-04
   129  1.2800000000000E+00 -5.2958831332000E-05  8.3638494781000E-05
   130  1.2900000000000E+00 -4.9024979272000E-05  8.3445532246000E-05
   131  1.3000000000000E+00 -2.2654023957000E-05  3.9712888830000E-05
   132  1.3100000000000E+00  2.0802206378000E-06 -3.5905440177000E-06
   133  1.3200000000000E+00  1.6220072646000E-06 -2.7996494097000E-06
   134  1.3300000000000E+00  0.0000000000000E+00  0.0000000000000E+00
   135  1.3400000000000E+00  0.0000000000000E+00  0.0000000000000E+00
   136  1.3500000000000E+00  0.0000000000000E+00  0.0000000000000E+00
   137  1.3600000000000E+00  0.0000000000000E+00  0.0000000000000E+00
   138  1.3700000000000E+00  0.0000000000000E+00  0.0000000000000E+00
   139  1.3800000000000E+00  0.0000000000000E+00  0.0000000000000E+00
   140  1.3900000000000E+00  0.0000000000000E+00  0.0000000000000E+00
   141  1.4000000000000E+00  0.0000000000000E+00  0.0000000000000E+00
   142  1.4100000000000E+00  0.0000000000000E+00  0.0000000000000E+00
   143  1.4200000000000E+00  0.0000000000000E+00  0.0000000000000E+00
   144  1.4300000000000E+00  0.0000000000000E+00  0.0000000000000E+00
   145  1.4400000000000E+00  0.0000000000000E+00  0.0000000000000E+00
   146  1.4500000000000E+00  0.0000000000000E+00  0.0000000000000E+00
   147  1.4600000000000E+00  0.0000000000000E+00  0.0000000000000E+00
   148  1.4700000000000E+00  0.0000000000000E+00  0.0000000000000E+00
   149  1.4800000000000E+00  0.0000000000000E+00  0.0000000000000E+00
   150  1.4900000000000E+00  0.0000000000000E+00  0.0000000000000E+00
   151  1.5000000000000E+00  0.0000000000000E+00  0.0000000000000E+00
   152  1.5100000000000E+00  0.0000000000000E+00  0.0000000000000E+00
   153  1.5200000000000E+00  0.0000000000000E+00  0.0000000000000E+00
   154  1.5300000000000E+00  0.0000000000000E+00  0.0000000000000E+00
   155  1.5400000000000E+00  0.0000000000000E+00  0.0000000000000E+00
   156  1.5500000000000E+00  0.0000000000000E+00  0.0000000000000E+00
   157  1.5600000000000E+00  0.0000000000000E+00  0.0000000000000E+00
   158  1.5700000000000E+00  0.0000000000000E+00  0.0000000000000E+00
   159  1.5800000000000E+00  0.0000000000000E+00  0.0000000000000E+00
   160  1.5900000000000E+00  0.0000000000000E+00  0.0000000000000E+00
   161  1.6000000000000E+00  0.0000000000000E+00  0.0000000000000E+00
   162  1.6100000000000E+00  0.0000000000000E+00  0.0000000000000E+00
   163  1.6200000000000E+00  0.0000000000000E+00  0.0000000000000E+00
   164  1.6300000000000E+00  0.0000000000000E+00  0.0000000000000E+00
   165  1.6400000000000E+00  0.0000000000000E+00  0.0000000000000E+00
   166  1.6500000000000E+00  0.0000000000000E+00  0.0000000000000E+00
   167  1.6600000000000E+00  0.0000000000000E+00  0.0000000000000E+00
   168  1.6700000000000E+00  0.0000000000000E+00  0.0000000000000E+00
   169  1.6800000000000E+00  0.0000000000000E+00  0.0000000000000E+00
   170  1.6900000000000E+00  0.0000000000000E+00  0.0000000000000E+00
   171  1.7000000000000E+00  0.0000000000000E+00  0.0000000000000E+00
   172  1.7100000000000E+00  0.0000000000000E+00  0.0000000000000E+00
   173  1.7200000000000E+00  0.0000000000000E+00  0.0000000000000E+00
   174  1.7300000000000E+00  0.0000000000000E+00  0.0000000000000E+00
   175  1.7400000000000E+00  0.0000000000000E+00  0.0000000000000E+00
   176  1.7500000000000E+00  0.0000000000000E+00  0.0000000000000E+00
   177  1.7600000000000E+00  0.0000000000000E+00  0.0000000000000E+00
   178  1.7700000000000E+00  0.0000000000000E+00  0.0000000000000E+00
   179  1.7800000000000E+00  0.0000000000000E+00  0.0000000000000E+00
   180  1.7900000000000E+00  0.0000000000000E+00  0.0000000000000E+00
   181  1.8000000000000E+00  0.0000000000000E+00  0.0000000000000E+00
   182  1.8100000000000E+00  0.0000000000000E+00  0.0000000000000E+00
   183  1.8200000000000E+00  0.0000000000000E+00  0.0000000000000E+00
   184  1.8300000000000E+00  0.0000000000000E+00  0.0000000000000E+00
   185  1.8400000000000E+00  0.0000000000000E+00  0.0000000000000E+00
   186  1.8500000000000E+00  0.0000000000000E+00  0.0000000000000E+00
   187  1.8600000000000E+00  0.0000000000000E+00  0.0000000000000E+00
   188  1.8700000000000E+00  0.0000000000000E+00  0.0000000000000E+00
   189  1.8800000000000E+00  0.0000000000000E+00  0.0000000000000E+00
   190  1.8900000000000E+00  0.0000000000000E+00  0.0000000000000E+00
   191  1.9000000000000E+00  0.0000000000000E+00  0.0000000000000E+00
   192  1.9100000000000E+00  0.0000000000000E+00  0.0000000000000E+00
   193  1.9200000000000E+00  0.0000000000000E+00  0.0000000000000E+00
   194  1.9300000000000E+00  0.0000000000000E+00  0.0000000000000E+00
   195  1.9400000000000E+00  0.0000000000000E+00  0.0000000000000E+00
   196  1.9500000000000E+00  0.0000000000000E+00  0.0000000000000E+00
   197  1.9600000000000E+00  0.0000000000000E+00  0.0000000000000E+00
   198  1.9700000000000E+00  0.0000000000000E+00  0.0000000000000E+00
   199  1.9800000000000E+00  0.0000000000000E+00  0.0000000000000E+00
   200  1.9900000000000E+00  0.0000000000000E+00  0.0000000000000E+00
   201  2.0000000000000E+00  0.0000000000000E+00  0.0000000000000E+00
   202  2.0100000000000E+00  0.0000000000000E+00  0.0000000000000E+00
   203  2.0200000000000E+00  0.0000000000000E+00  0.0000000000000E+00
   204  2.0300000000000E+00  0.0000000000000E+00  0.0000000000000E+00
   205  2.0400000000000E+00  0.0000000000000E+00  0.0000000000000E+00
   206  2.0500000000000E+00  0.0000000000000E+00  0.0000000000000E+00
   207  2.0600000000000E+00  0.0000000000000E+00  0.0000000000000E+00
   208  2.0700000000000E+00  0.0000000000000E+00  0.0000000000000E+00
   209  2.0800000000000E+00  0.0000000000000E+00  0.0000000000000E+00
   210  2.0900000000000E+00  0.0000000000000E+00  0.0000000000000E+00
   211  2.1000000000000E+00  0.0000000000000E+00  0.0000000000000E+00
   212  2.1100000000000E+00  0.0000000000000E+00  0.0000000000000E+00
   213  2.1200000000000E+00  0.0000000000000E+00  0.0000000000000E+00
   214  2.1300000000000E+00  0.0000000000000E+00  0.0000000000000E+00
   215  2.1400000000000E+00  0.0000000000000E+00  0.0000000000000E+00
   216  2.1500000000000E+00  0.0000000000000E+00  0.0000000000000E+00
   217  2.1600000000000E+00  0.0000000000000E+00  0.0000000000000E+00
   218  2.1700000000000E+00  0.0000000000000E+00  0.0000000000000E+00
   219  2.1800000000000E+00  0.0000000000000E+00  0.0000000000000E+00
   220  2.1900000000000E+00  0.0000000000000E+00  0.0000000000000E+00
   221  2.2000000000000E+00  0.0000000000000E+00  0.0000000000000E+00
   222  2.2100000000000E+00  0.0000000000000E+00  0.0000000000000E+00
   223  2.2200000000000E+00  0.0000000000000E+00  0.0000000000000E+00
   224  2.2300000000000E+00  0.0000000000000E+00  0.0000000000000E+00
   225  2.2400000000000E+00  0.0000000000000E+00  0.0000000000000E+00
   226  2.2500000000000E+00  0.0000000000000E+00  0.0000000000000E+00
   227  2.2600000000000E+00  0.0000000000000E+00  0.0000000000000E+00
   228  2.2700000000000E+00  0.0000000000000E+00  0.0000000000000E+00
   229  2.2800000000000E+00  0.0000000000000E+00  0.0000000000000E+00
   230  2.2900000000000E+00  0.0000000000000E+00  0.0000000000000E+00
   231  2.3000000000000E+00  0.0000000000000E+00  0.0000000000000E+00
   232  2.3100000000000E+00  0.0000000000000E+00  0.0000000000000E+00
   233  2.3200000000000E+00  0.0000000000000E+00  0.0000000000000E+00
   234  2.3300000000000E+00  0.0000000000000E+00  0.0000000000000E+00
   235  2.3400000000000E+00  0.0000000000000E+00  0.0000000000000E+00
   236  2.3500000000000E+00  0.0000000000000E+00  0.0000000000000E+00
   237  2.3600000000000E+00  0.0000000000000E+00  0.0000000000000E+00
   238  2.3700000000000E+00  0.0000000000000E+00  0.0000000000000E+00
   239  2.3800000000000E+00  0.0000000000000E+00  0.0000000000000E+00
   240  2.3900000000000E+00  0.0000000000000E+00  0.0000000000000E+00
   241  2.4000000000000E+00  0.0000000000000E+00  0.0000000000000E+00
   242  2.4100000000000E+00  0.0000000000000E+00  0.0000000000000E+00
   243  2.4200000000000E+00  0.0000000000000E+00  0.0000000000000E+00
   244  2.4300000000000E+00  0.0000000000000E+00  0.0000000000000E+00
   245  2.4400000000000E+00  0.0000000000000E+00  0.0000000000000E+00
   246  2.4500000000000E+00  0.0000000000000E+00  0.0000000000000E+00
   247  2.4600000000000E+00  0.0000000000000E+00  0.0000000000000E+00
   248  2.4700000000000E+00  0.0000000000000E+00  0.0000000000000E+00
   249  2.4800000000000E+00  0.0000000000000E+00  0.0000000000000E+00
   250  2.4900000000000E+00  0.0000000000000E+00  0.0000000000000E+00
   251  2.5000000000000E+00  0.0000000000000E+00  0.0000000000000E+00
   252  2.5100000000000E+00  0.0000000000000E+00  0.0000000000000E+00
   253  2.5200000000000E+00  0.0000000000000E+00  0.0000000000000E+00
   254  2.5300000000000E+00  0.0000000000000E+00  0.0000000000000E+00
   255  2.5400000000000E+00  0.0000000000000E+00  0.0000000000000E+00
   256  2.5500000000000E+00  0.0000000000000E+00  0.0000000000000E+00
   257  2.5600000000000E+00  0.0000000000000E+00  0.0000000000000E+00
   258  2.5700000000000E+00  0.0000000000000E+00  0.0000000000000E+00
   259  2.5800000000000E+00  0.0000000000000E+00  0.0000000000000E+00
   260  2.5900000000000E+00  0.0000000000000E+00  0.0000000000000E+00
   261  2.6000000000000E+00  0.0000000000000E+00  0.0000000000000E+00
   262  2.6100000000000E+00  0.0000000000000E+00  0.0000000000000E+00
   263  2.6200000000000E+00  0.0000000000000E+00  0.0000000000000E+00
   264  2.6300000000000E+00  0.0000000000000E+00  0.0000000000000E+00
   265  2.6400000000000E+00  0.0000000000000E+00  0.0000000000000E+00
   266  2.6500000000000E+00  0.0000000000000E+00  0.0000000000000E+00
   267  2.6600000000000E+00  0.0000000000000E+00  0.0000000000000E+00
   268  2.6700000000000E+00  0.0000000000000E+00  0.0000000000000E+00
   269  2.6800000000000E+00  0.0000000000000E+00  0.0000000000000E+00
   270  2.6900000000000E+00  0.0000000000000E+00  0.0000000000000E+00
   271  2.7000000000000E+00  0.0000000000000E+00  0.0000000000000E+00
   272  2.7100000000000E+00  0.0000000000000E+00  0.0000000000000E+00
   273  2.7200000000000E+00  0.0000000000000E+00  0.0000000000000E+00
   274  2.7300000000000E+00  0.0000000000000E+00  0.0000000000000E+00
   275  2.7400000000000E+00  0.0000000000000E+00  0.0000000000000E+00
   276  2.7500000000000E+00  0.0000000000000E+00  0.0000000000000E+00
   277  2.7600000000000E+00  0.0000000000000E+00  0.0000000000000E+00
   278  2.7700000000000E+00  0.0000000000000E+00  0.0000000000000E+00
   279  2.7800000000000E+00  0.0000000000000E+00  0.0000000000000E+00
   280  2.7900000000000E+00  0.0000000000000E+00  0.0000000000000E+00
   281  2.8000000000000E+00  0.0000000000000E+00  0.0000000000000E+00
   282  2.8100000000000E+00  0.0000000000000E+00  0.0000000000000E+00
   283  2.8200000000000E+00  0.0000000000000E+00  0.0000000000000E+00
   284  2.8300000000000E+00  0.0000000000000E+00  0.0000000000000E+00
   285  2.8400000000000E+00  0.0000000000000E+00  0.0000000000000E+00
   286  2.8500000000000E+00  0.0000000000000E+00  0.0000000000000E+00
   287  2.8600000000000E+00  0.0000000000000E+00  0.0000000000000E+00
   288  2.8700000000000E+00  0.0000000000000E+00  0.0000000000000E+00
   289  2.8800000000000E+00  0.0000000000000E+00  0.0000000000000E+00
   290  2.8900000000000E+00  0.0000000000000E+00  0.0000000000000E+00
   291  2.9000000000000E+00  0.0000000000000E+00  0.0000000000000E+00
   292  2.9100000000000E+00  0.0000000000000E+00  0.0000000000000E+00
   293  2.9200000000000E+00  0.0000000000000E+00  0.0000000000000E+00
   294  2.9300000000000E+00  0.0000000000000E+00  0.0000000000000E+00
   295  2.9400000000000E+00  0.0000000000000E+00  0.0000000000000E+00
   296  2.9500000000000E+00  0.0000000000000E+00  0.0000000000000E+00
   297  2.9600000000000E+00  0.0000000000000E+00  0.0000000000000E+00
   298  2.9700000000000E+00  0.0000000000000E+00  0.0000000000000E+00
   299  2.9800000000000E+00  0.0000000000000E+00  0.0000000000000E+00
   300  2.9900000000000E+00  0.0000000000000E+00  0.0000000000000E+00
   301  3.0000000000000E+00  0.0000000000000E+00  0.0000000000000E+00
   302  3.0100000000000E+00  0.0000000000000E+00  0.0000000000000E+00
   303  3.0200000000000E+00  0.0000000000000E+00  0.0000000000000E+00
   304  3.0300000000000E+00  0.0000000000000E+00  0.0000000000000E+00
   305  3.0400000000000E+00  0.0000000000000E+00  0.0000000000000E+00
   306  3.0500000000000E+00  0.0000000000000E+00  0.0000000000000E+00
   307  3.0600000000000E+00  0.0000000000000E+00  0.0000000000000E+00
   308  3.0700000000000E+00  0.0000000000000E+00  0.0000000000000E+00
   309  3.0800000000000E+00  0.0000000000000E+00  0.0000000000000E+00
   310  3.0900000000000E+00  0.0000000000000E+00  0.0000000000000E+00
   311  3.1000000000000E+00  0.0000000000000E+00  0.0000000000000E+00
   312  3.1100000000000E+00  0.0000000000000E+00  0.0000000000000E+00
   313  3.1200000000000E+00  0.0000000000000E+00  0.0000000000000E+00
   314  3.1300000000000E+00  0.0000000000000E+00  0.0000000000000E+00
   315  3.1400000000000E+00  0.0000000000000E+00  0.0000000000000E+00
   316  3.1500000000000E+00  0.0000000000000E+00  0.0000000000000E+00
   317  3.1600000000000E+00  0.0000000000000E+00  0.0000000000000E+00
   318  3.1700000000000E+00  0.0000000000000E+00  0.0000000000000E+00
   319  3.1800000000000E+00  0.0000000000000E+00  0.0000000000000E+00
   320  3.1900000000000E+00  0.0000000000000E+00  0.0000000000000E+00
   321  3.2000000000000E+00  0.0000000000000E+00  0.0000000000000E+00
   322  3.2100000000000E+00  0.0000000000000E+00  0.0000000000000E+00
   323  3.2200000000000E+00  0.0000000000000E+00  0.0000000000000E+00
   324  3.2300000000000E+00  0.0000000000000E+00  0.0000000000000E+00
   325  3.2400000000000E+00  0.0000000000000E+00  0.0000000000000E+00
   326  3.2500000000000E+00  0.0000000000000E+00  0.0000000000000E+00
   327  3.2600000000000E+00  0.0000000000000E+00  0.0000000000000E+00
   328  3.2700000000000E+00  0.0000000000000E+00  0.0000000000000E+00
   329  3.2800000000000E+00  0.0000000000000E+00  0.0000000000000E+00
   330  3.2900000000000E+00  0.0000000000000E+00  0.0000000000000E+00
   331  3.3000000000000E+00  0.0000000000000E+00  0.0000000000000E+00
   332  3.3100000000000E+00  0.0000000000000E+00  0.0000000000000E+00
   333  3.3200000000000E+00  0.0000000000000E+00  0.0000000000000E+00
   334  3.3300000000000E+00  0.0000000000000E+00  0.0000000000000E+00
   335  3.3400000000000E+00  0.0000000000000E+00  0.0000000000000E+00
   336  3.3500000000000E+00  0.0000000000000E+00  0.0000000000000E+00
   337  3.3600000000000E+00  0.0000000000000E+00  0.0000000000000E+00
   338  3.3700000000000E+00  0.0000000000000E+00  0.0000000000000E+00
   339  3.3800000000000E+00  0.0000000000000E+00  0.0000000000000E+00
   340  3.3900000000000E+00  0.0000000000000E+00  0.0000000000000E+00
   341  3.4000000000000E+00  0.0000000000000E+00  0.0000000000000E+00
   342  3.4100000000000E+00  0.0000000000000E+00  0.0000000000000E+00
   343  3.4200000000000E+00  0.0000000000000E+00  0.0000000000000E+00
   344  3.4300000000000E+00  0.0000000000000E+00  0.0000000000000E+00
   345  3.4400000000000E+00  0.0000000000000E+00  0.0000000000000E+00
   346  3.4500000000000E+00  0.0000000000000E+00  0.0000000000000E+00
   347  3.4600000000000E+00  0.0000000000000E+00  0.0000000000000E+00
   348  3.4700000000000E+00  0.0000000000000E+00  0.0000000000000E+00
   349  3.4800000000000E+00  0.0000000000000E+00  0.0000000000000E+00
   350  3.4900000000000E+00  0.0000000000000E+00  0.0000000000000E+00
   351  3.5000000000000E+00  0.0000000000000E+00  0.0000000000000E+00
   352  3.5100000000000E+00  0.0000000000000E+00  0.0000000000000E+00
   353  3.5200000000000E+00  0.0000000000000E+00  0.0000000000000E+00
   354  3.5300000000000E+00  0.0000000000000E+00  0.0000000000000E+00
   355  3.5400000000000E+00  0.0000000000000E+00  0.0000000000000E+00
   356  3.5500000000000E+00  0.0000000000000E+00  0.0000000000000E+00
   357  3.5600000000000E+00  0.0000000000000E+00  0.0000000000000E+00
   358  3.5700000000000E+00  0.0000000000000E+00  0.0000000000000E+00
   359  3.5800000000000E+00  0.0000000000000E+00  0.0000000000000E+00
   360  3.5900000000000E+00  0.0000000000000E+00  0.0000000000000E+00
   361  3.6000000000000E+00  0.0000000000000E+00  0.0000000000000E+00
   362  3.6100000000000E+00  0.0000000000000E+00  0.0000000000000E+00
   363  3.6200000000000E+00  0.0000000000000E+00  0.0000000000000E+00
   364  3.6300000000000E+00  0.0000000000000E+00  0.0000000000000E+00
   365  3.6400000000000E+00  0.0000000000000E+00  0.0000000000000E+00
   366  3.6500000000000E+00  0.0000000000000E+00  0.0000000000000E+00
   367  3.6600000000000E+00  0.0000000000000E+00  0.0000000000000E+00
   368  3.6700000000000E+00  0.0000000000000E+00  0.0000000000000E+00
   369  3.6800000000000E+00  0.0000000000000E+00  0.0000000000000E+00
   370  3.6900000000000E+00  0.0000000000000E+00  0.0000000000000E+00
   371  3.7000000000000E+00  0.0000000000000E+00  0.0000000000000E+00
   372  3.7100000000000E+00  0.0000000000000E+00  0.0000000000000E+00
   373  3.7200000000000E+00  0.0000000000000E+00  0.0000000000000E+00
   374  3.7300000000000E+00  0.0000000000000E+00  0.0000000000000E+00
   375  3.7400000000000E+00  0.0000000000000E+00  0.0000000000000E+00
   376  3.7500000000000E+00  0.0000000000000E+00  0.0000000000000E+00
   377  3.7600000000000E+00  0.0000000000000E+00  0.0000000000000E+00
   378  3.7700000000000E+00  0.0000000000000E+00  0.0000000000000E+00
   379  3.7800000000000E+00  0.0000000000000E+00  0.0000000000000E+00
   380  3.7900000000000E+00  0.0000000000000E+00  0.0000000000000E+00
   381  3.8000000000000E+00  0.0000000000000E+00  0.0000000000000E+00
   382  3.8100000000000E+00  0.0000000000000E+00  0.0000000000000E+00
   383  3.8200000000000E+00  0.0000000000000E+00  0.0000000000000E+00
   384  3.8300000000000E+00  0.0000000000000E+00  0.0000000000000E+00
   385  3.8400000000000E+00  0.0000000000000E+00  0.0000000000000E+00
   386  3.8500000000000E+00  0.0000000000000E+00  0.0000000000000E+00
   387  3.8600000000000E+00  0.0000000000000E+00  0.0000000000000E+00
   388  3.8700000000000E+00  0.0000000000000E+00  0.0000000000000E+00
   389  3.8800000000000E+00  0.0000000000000E+00  0.0000000000000E+00
   390  3.8900000000000E+00  0.0000000000000E+00  0.0000000000000E+00
   391  3.9000000000000E+00  0.0000000000000E+00  0.0000000000000E+00
   392  3.9100000000000E+00  0.0000000000000E+00  0.0000000000000E+00
   393  3.9200000000000E+00  0.0000000000000E+00  0.0000000000000E+00
   394  3.9300000000000E+00  0.0000000000000E+00  0.0000000000000E+00
   395  3.9400000000000E+00  0.0000000000000E+00  0.0000000000000E+00
   396  3.9500000000000E+00  0.0000000000000E+00  0.0000000000000E+00
   397  3.9600000000000E+00  0.0000000000000E+00  0.0000000000000E+00
   398  3.9700000000000E+00  0.0000000000000E+00  0.0000000000000E+00
   399  3.9800000000000E+00  0.0000000000000E+00  0.0000000000000E+00
   400  3.9900000000000E+00  0.0000000000000E+00  0.0000000000000E+00
   401  4.0000000000000E+00  0.0000000000000E+00  0.0000000000000E+00
   402  4.0100000000000E+00  0.0000000000000E+00  0.0000000000000E+00
   403  4.0200000000000E+00  0.0000000000000E+00  0.0000000000000E+00
   404  4.0300000000000E+00  0.0000000000000E+00  0.0000000000000E+00
   405  4.0400000000000E+00  0.0000000000000E+00  0.0000000000000E+00
   406  4.0500000000000E+00  0.0000000000000E+00  0.0000000000000E+00
   407  4.0600000000000E+00  0.0000000000000E+00  0.0000000000000E+00
   408  4.0700000000000E+00  0.0000000000000E+00  0.0000000000000E+00
   409  4.0800000000000E+00  0.0000000000000E+00  0.0000000000000E+00
   410  4.0900000000000E+00  0.0000000000000E+00  0.0000000000000E+00
   411  4.1000000000000E+00  0.0000000000000E+00  0.0000000000000E+00
   412  4.1100000000000E+00  0.0000000000000E+00  0.0000000000000E+00
   413  4.1200000000000E+00  0.0000000000000E+00  0.0000000000000E+00
   414  4.1300000000000E+00  0.0000000000000E+00  0.0000000000000E+00
   415  4.1400000000000E+00  0.0000000000000E+00  0.0000000000000E+00
   416  4.1500000000000E+00  0.0000000000000E+00  0.0000000000000E+00
   417  4.1600000000000E+00  0.0000000000000E+00  0.0000000000000E+00
   418  4.1700000000000E+00  0.0000000000000E+00  0.0000000000000E+00
   419  4.1800000000000E+00  0.0000000000000E+00  0.0000000000000E+00
   420  4.1900000000000E+00  0.0000000000000E+00  0.0000000000000E+00
   421  4.2000000000000E+00  0.0000000000000E+00  0.0000000000000E+00
   422  4.2100000000000E+00  0.0000000000000E+00  0.0000000000000E+00
   423  4.2200000000000E+00  0.0000000000000E+00  0.0000000000000E+00