F   ONCVPSP-2.1.1   r_core=    1.58478 1.66223
    9.0000   7.0000   150105   zatom,zion,pspd
    8   11   1   4   600   0   pspcod,pspxc,lmax,lloc,mmax,r2well
    5.99000000   0.00000000   0.00000000   rchrg fchrg qchrg
    2   2   0   0   0   nproj
    1   1   extension_switch
       0                         5.5289211365000E+00  8.3011166990000E-01
     1  0.0000000000000E+00  0.0000000000000E+00  0.0000000000000E+00
     2  1.0000000000000E-02 -8.2765367661000E-02  8.4977745027000E-03
     3  2.0000000000000E-02 -1.6535439277000E-01  1.6995075500000E-02
     4  3.0000000000000E-02 -2.4759073313000E-01  2.5490065749000E-02
     5  4.0000000000000E-02 -3.2929805361000E-01  3.3978201948000E-02
     6  5.0000000000000E-02 -4.1030004538000E-01  4.2450934978000E-02
     7  6.0000000000000E-02 -4.9042046381000E-01  5.0894473377000E-02
     8  7.0000000000000E-02 -5.6948319073000E-01  5.9288629977000E-02
     9  8.0000000000000E-02 -6.4731232665000E-01  6.7605770620000E-02
    10  9.0000000000000E-02 -7.2373231787000E-01  7.5809882731000E-02
    11  1.0000000000000E-01 -7.9856812308000E-01  8.3855780035000E-02
    12  1.1000000000000E-01 -8.7164542344000E-01  9.1688458162000E-02
    13  1.2000000000000E-01 -9.4279087946000E-01  9.9242614015000E-02
    14  1.3000000000000E-01 -1.0118324374000E+00  1.0644233988000E-01
    15  1.4000000000000E-01 -1.0785996870000E+00  1.1320100107000E-01
    16  1.5000000000000E-01 -1.1429242724000E+00  1.1942130375000E-01
    17  1.6000000000000E-01 -1.2046403547000E+00  1.2499555719000E-01
    18  1.7000000000000E-01 -1.2635851290000E+00  1.2980613222000E-01
    19  1.8000000000000E-01 -1.3195993906000E+00  1.3372611542000E-01
    20  1.9000000000000E-01 -1.3725281521000E+00  1.3662015609000E-01
    21  2.0000000000000E-01 -1.4222213049000E+00  1.3834549949000E-01
    22  2.1000000000000E-01 -1.4685343244000E+00  1.3875320039000E-01
    23  2.2000000000000E-01 -1.5113290116000E+00  1.3768950360000E-01
    24  2.3000000000000E-01 -1.5504742676000E+00  1.3499738183000E-01
    25  2.4000000000000E-01 -1.5858468932000E+00  1.3051821232000E-01
    26  2.5000000000000E-01 -1.6173324094000E+00  1.2409358079000E-01
    27  2.6000000000000E-01 -1.6448258870000E+00  1.1556718545000E-01
    28  2.7000000000000E-01 -1.6682327836000E+00  1.0478683256000E-01
    29  2.8000000000000E-01 -1.6874697713000E+00  9.1606484668000E-02
    30  2.9000000000000E-01 -1.7024655547000E+00  7.5888355321000E-02
    31  3.0000000000000E-01 -1.7131616646000E+00  5.7505016071000E-02
    32  3.1000000000000E-01 -1.7195132203000E+00  3.6341492739000E-02
    33  3.2000000000000E-01 -1.7214896476000E+00  1.2297318679000E-02
    34  3.3000000000000E-01 -1.7190753488000E+00 -1.4711469151000E-02
    35  3.4000000000000E-01 -1.7122703208000E+00 -4.4750397420000E-02
    36  3.5000000000000E-01 -1.7010906727000E+00 -7.7864823908000E-02
    37  3.6000000000000E-01 -1.6855691189000E+00 -1.1407819815000E-01
    38  3.7000000000000E-01 -1.6657553283000E+00 -1.5339064203000E-01
    39  3.8000000000000E-01 -1.6417162121000E+00 -1.9577762913000E-01
    40  3.9000000000000E-01 -1.6135361183000E+00 -2.4118883907000E-01
    41  4.0000000000000E-01 -1.5813168878000E+00 -2.8954733706000E-01
    42  4.1000000000000E-01 -1.5451778198000E+00 -3.4074892451000E-01
    43  4.2000000000000E-01 -1.5052555146000E+00 -3.9466176559000E-01
    44  4.3000000000000E-01 -1.4617035941000E+00 -4.5112628491000E-01
    45  4.4000000000000E-01 -1.4146922985000E+00 -5.0995534554000E-01
    46  4.5000000000000E-01 -1.3644079581000E+00 -5.7093471422000E-01
    47  4.6000000000000E-01 -1.3110523391000E+00 -6.3382381778000E-01
    48  4.7000000000000E-01 -1.2548418642000E+00 -6.9835679160000E-01
    49  4.8000000000000E-01 -1.1960067203000E+00 -7.6424381400000E-01
    50  4.9000000000000E-01 -1.1347898338000E+00 -8.3117271149000E-01
    51  5.0000000000000E-01 -1.0714457210000E+00 -8.9881087821000E-01
    52  5.1000000000000E-01 -1.0062392688000E+00 -9.6680741987000E-01
    53  5.2000000000000E-01 -9.3944443284000E-01 -1.0347954850000E+00
    54  5.3000000000000E-01 -8.7134265843000E-01 -1.1023950777000E+00
    55  5.4000000000000E-01 -8.0222155879000E-01 -1.1692156453000E+00
    56  5.5000000000000E-01 -7.3237316395000E-01 -1.2348592994000E+00
    57  5.6000000000000E-01 -6.6209233374000E-01 -1.2989239104000E+00
    58  5.7000000000000E-01 -5.9167508860000E-01 -1.3610063408000E+00
    59  5.8000000000000E-01 -5.2141676925000E-01 -1.4207060156000E+00
    60  5.9000000000000E-01 -4.5161035964000E-01 -1.4776282382000E+00
    61  6.0000000000000E-01 -3.8254475928000E-01 -1.5313876060000E+00
    62  6.1000000000000E-01 -3.1450270459000E-01 -1.5816120485000E+00
    63  6.2000000000000E-01 -2.4775971028000E-01 -1.6279450506000E+00
    64  6.3000000000000E-01 -1.8258139941000E-01 -1.6700507459000E+00
    65  6.4000000000000E-01 -1.1922254256000E-01 -1.7076159179000E+00
    66  6.5000000000000E-01 -5.7925627099000E-02 -1.7403527959000E+00
    67  6.6000000000000E-01  1.0816413515000E-03 -1.7680037914000E+00
    68  6.7000000000000E-01  5.7586891468000E-02 -1.7903426082000E+00
    69  6.8000000000000E-01  1.1139453579000E-01 -1.8071769482000E+00
    70  6.9000000000000E-01  1.6232708368000E-01 -1.8183509107000E+00
    71  7.0000000000000E-01  2.1022662989000E-01 -1.8237476452000E+00
    72  7.1000000000000E-01  2.5495518882000E-01 -1.8232898072000E+00
    73  7.2000000000000E-01  2.9639569708000E-01 -1.8169411719000E+00
    74  7.3000000000000E-01  3.3445262830000E-01 -1.8047074551000E+00
    75  7.4000000000000E-01  3.6905235947000E-01 -1.7866366075000E+00
    76  7.5000000000000E-01  4.0014400110000E-01 -1.7628198051000E+00
    77  7.6000000000000E-01  4.2769890970000E-01 -1.7333900298000E+00
    78  7.7000000000000E-01  4.5171084310000E-01 -1.6985216857000E+00
    79  7.8000000000000E-01  4.7219572975000E-01 -1.6584294326000E+00
    80  7.9000000000000E-01  4.8919125795000E-01 -1.6133666024000E+00
    81  8.0000000000000E-01  5.0275628620000E-01 -1.5636232051000E+00
    82  8.1000000000000E-01  5.1297007788000E-01 -1.5095235344000E+00
    83  8.2000000000000E-01  5.1993136431000E-01 -1.4514233827000E+00
    84  8.3000000000000E-01  5.2375724189000E-01 -1.3897068843000E+00
    85  8.4000000000000E-01  5.2458191002000E-01 -1.3247830036000E+00
    86  8.5000000000000E-01  5.2255525768000E-01 -1.2570816894000E+00
    87  8.6000000000000E-01  5.1784130741000E-01 -1.1870497206000E+00
    88  8.7000000000000E-01  5.1061652652000E-01 -1.1151462670000E+00
    89  8.8000000000000E-01  5.0106801599000E-01 -1.0418381943000E+00
    90  8.9000000000000E-01  4.8939158832000E-01 -9.6759514144000E-01
    91  9.0000000000000E-01  4.7578974627000E-01 -8.9288440216000E-01
    92  9.1000000000000E-01  4.6046957485000E-01 -8.1816564080000E-01
    93  9.2000000000000E-01  4.4364055954000E-01 -7.4388547624000E-01
    94  9.3000000000000E-01  4.2551234395000E-01 -6.7047196638000E-01
    95  9.4000000000000E-01  4.0629244057000E-01 -5.9832902667000E-01
    96  9.5000000000000E-01  3.8618390821000E-01 -5.2783081587000E-01
    97  9.6000000000000E-01  3.6538313212000E-01 -4.5931646190000E-01
    98  9.7000000000000E-01  3.4407778179000E-01 -3.9308523362000E-01
    99  9.8000000000000E-01  3.2244289156000E-01 -3.2938674171000E-01
   100  9.9000000000000E-01  3.0064331460000E-01 -2.6843543308000E-01
   101  1.0000000000000E+00  2.7883485469000E-01 -2.1042079306000E-01
   102  1.0100000000000E+00  2.5716430669000E-01 -1.5551012883000E-01
   103  1.0200000000000E+00  2.3576880028000E-01 -1.0384739811000E-01
   104  1.0300000000000E+00  2.1477587394000E-01 -5.5553267607000E-02
   105  1.0400000000000E+00  1.9430130196000E-01 -1.0721577519000E-02
   106  1.0500000000000E+00  1.7444959762000E-01  3.0579563964000E-02
   107  1.0600000000000E+00  1.5531423192000E-01  6.8307117986000E-02
   108  1.0700000000000E+00  1.3697718725000E-01  1.0244347407000E-01
   109  1.0800000000000E+00  1.1950972421000E-01  1.3299487523000E-01
   110  1.0900000000000E+00  1.0297016042000E-01  1.5999429677000E-01
   111  1.1000000000000E+00  8.7405356812000E-02  1.8349831212000E-01
   112  1.1100000000000E+00  7.2851518361000E-02  2.0358522753000E-01
   113  1.1200000000000E+00  5.9334602552000E-02  2.2035390058000E-01
   114  1.1300000000000E+00  4.6869704309000E-02  2.3392375318000E-01
   115  1.1400000000000E+00  3.5460950262000E-02  2.4443326951000E-01
   116  1.1500000000000E+00  2.5104002352000E-02  2.5203600052000E-01
   117  1.1600000000000E+00  1.5786392842000E-02  2.5689964675000E-01
   118  1.1700000000000E+00  7.4865282300000E-03  2.5920525667000E-01
   119  1.1800000000000E+00  1.7534614752000E-04  2.5914348389000E-01
   120  1.1900000000000E+00 -6.1821995303000E-03  2.5691270000000E-01
   121  1.2000000000000E+00 -1.1626801411000E-02  2.5271876249000E-01
   122  1.2100000000000E+00 -1.6205272039000E-02  2.4676917902000E-01
   123  1.2200000000000E+00 -1.9967837257000E-02  2.3927328024000E-01
   124  1.2300000000000E+00 -2.2968341345000E-02  2.3044260696000E-01
   125  1.2400000000000E+00 -2.5263537552000E-02  2.2048291749000E-01
   126  1.2500000000000E+00 -2.6911637438000E-02  2.0959531547000E-01
   127  1.2600000000000E+00 -2.7972606425000E-02  1.9797894850000E-01
   128  1.2700000000000E+00 -2.8506461342000E-02  1.8582087599000E-01
   129  1.2800000000000E+00 -2.8572533740000E-02  1.7329779612000E-01
   130  1.2900000000000E+00 -2.8230657383000E-02  1.6058217724000E-01
   131  1.3000000000000E+00 -2.7537891173000E-02  1.4782763601000E-01
   132  1.3100000000000E+00 -2.6549152594000E-02  1.3517524571000E-01
   133  1.3200000000000E+00 -2.5319207786000E-02  1.2276102508000E-01
   134  1.3300000000000E+00 -2.3896863190000E-02  1.1069451482000E-01
   135  1.3400000000000E+00 -2.2329198646000E-02  9.9076780028000E-02
   136  1.3500000000000E+00 -2.0661340362000E-02  8.7998558618000E-02
   137  1.3600000000000E+00 -1.8931184366000E-02  7.7524185835000E-02
   138  1.3700000000000E+00 -1.7176104778000E-02  6.7714303821000E-02
   139  1.3800000000000E+00 -1.5427949189000E-02  5.8609844057000E-02
   140  1.3900000000000E+00 -1.3713595067000E-02  5.0235849963000E-02
   141  1.4000000000000E+00 -1.2059606440000E-02  4.2613991911000E-02
   142  1.4100000000000E+00 -1.0483629397000E-02  3.5740464725000E-02
   143  1.4200000000000E+00 -9.0032909803000E-03  2.9610292004000E-02
   144  1.4300000000000E+00 -7.6311182238000E-03  2.4204105215000E-02
   145  1.4400000000000E+00 -6.3753953137000E-03  1.9492759996000E-02
   146  1.4500000000000E+00 -5.2437916605000E-03  1.5443516351000E-02
   147  1.4600000000000E+00 -4.2372624797000E-03  1.2011201781000E-02
   148  1.4700000000000E+00 -3.3573576442000E-03  9.1503490091000E-03
   149  1.4800000000000E+00 -2.6008205312000E-03  6.8082875289000E-03
   150  1.4900000000000E+00 -1.9633918099000E-03  4.9316828485000E-03
   151  1.5000000000000E+00 -1.4386562128000E-03  3.4640512661000E-03
   152  1.5100000000000E+00 -1.0180559031000E-03  2.3510347548000E-03
   153  1.5200000000000E+00 -6.9256064193000E-04  1.5352102650000E-03
   154  1.5300000000000E+00 -4.5091828367000E-04  9.6680587365000E-04
   155  1.5400000000000E+00 -2.8191152043000E-04  5.9179985676000E-04
   156  1.5500000000000E+00 -1.7292233306000E-04  3.6746650307000E-04
   157  1.5600000000000E+00 -1.1121292386000E-04  2.4847136162000E-04
   158  1.5700000000000E+00 -8.5369253048000E-05  2.0541396997000E-04
   159  1.5800000000000E+00 -7.9235921821000E-05  1.9735433251000E-04
   160  1.5900000000000E+00 -5.5422529727000E-05  1.3946320563000E-04
   161  1.6000000000000E+00 -1.3577136348000E-05  3.4431398061000E-05
   162  1.6100000000000E+00  4.8224950449000E-06 -1.2062177406000E-05
   163  1.6200000000000E+00  2.0458210430000E-06 -5.1170724142000E-06
   164  1.6300000000000E+00  0.0000000000000E+00  0.0000000000000E+00
   165  1.6400000000000E+00  0.0000000000000E+00  0.0000000000000E+00
   166  1.6500000000000E+00  0.0000000000000E+00  0.0000000000000E+00
   167  1.6600000000000E+00  0.0000000000000E+00  0.0000000000000E+00
   168  1.6700000000000E+00  0.0000000000000E+00  0.0000000000000E+00
   169  1.6800000000000E+00  0.0000000000000E+00  0.0000000000000E+00
   170  1.6900000000000E+00  0.0000000000000E+00  0.0000000000000E+00
   171  1.7000000000000E+00  0.0000000000000E+00  0.0000000000000E+00
   172  1.7100000000000E+00  0.0000000000000E+00  0.0000000000000E+00
   173  1.7200000000000E+00  0.0000000000000E+00  0.0000000000000E+00
   174  1.7300000000000E+00  0.0000000000000E+00  0.0000000000000E+00
   175  1.7400000000000E+00  0.0000000000000E+00  0.0000000000000E+00
   176  1.7500000000000E+00  0.0000000000000E+00  0.0000000000000E+00
   177  1.7600000000000E+00  0.0000000000000E+00  0.0000000000000E+00
   178  1.7700000000000E+00  0.0000000000000E+00  0.0000000000000E+00
   179  1.7800000000000E+00  0.0000000000000E+00  0.0000000000000E+00
   180  1.7900000000000E+00  0.0000000000000E+00  0.0000000000000E+00
   181  1.8000000000000E+00  0.0000000000000E+00  0.0000000000000E+00
   182  1.8100000000000E+00  0.0000000000000E+00  0.0000000000000E+00
   183  1.8200000000000E+00  0.0000000000000E+00  0.0000000000000E+00
   184  1.8300000000000E+00  0.0000000000000E+00  0.0000000000000E+00
   185  1.8400000000000E+00  0.0000000000000E+00  0.0000000000000E+00
   186  1.8500000000000E+00  0.0000000000000E+00  0.0000000000000E+00
   187  1.8600000000000E+00  0.0000000000000E+00  0.0000000000000E+00
   188  1.8700000000000E+00  0.0000000000000E+00  0.0000000000000E+00
   189  1.8800000000000E+00  0.0000000000000E+00  0.0000000000000E+00
   190  1.8900000000000E+00  0.0000000000000E+00  0.0000000000000E+00
   191  1.9000000000000E+00  0.0000000000000E+00  0.0000000000000E+00
   192  1.9100000000000E+00  0.0000000000000E+00  0.0000000000000E+00
   193  1.9200000000000E+00  0.0000000000000E+00  0.0000000000000E+00
   194  1.9300000000000E+00  0.0000000000000E+00  0.0000000000000E+00
   195  1.9400000000000E+00  0.0000000000000E+00  0.0000000000000E+00
   196  1.9500000000000E+00  0.0000000000000E+00  0.0000000000000E+00
   197  1.9600000000000E+00  0.0000000000000E+00  0.0000000000000E+00
   198  1.9700000000000E+00  0.0000000000000E+00  0.0000000000000E+00
   199  1.9800000000000E+00  0.0000000000000E+00  0.0000000000000E+00
   200  1.9900000000000E+00  0.0000000000000E+00  0.0000000000000E+00
   201  2.0000000000000E+00  0.0000000000000E+00  0.0000000000000E+00
   202  2.0100000000000E+00  0.0000000000000E+00  0.0000000000000E+00
   203  2.0200000000000E+00  0.0000000000000E+00  0.0000000000000E+00
   204  2.0300000000000E+00  0.0000000000000E+00  0.0000000000000E+00
   205  2.0400000000000E+00  0.0000000000000E+00  0.0000000000000E+00
   206  2.0500000000000E+00  0.0000000000000E+00  0.0000000000000E+00
   207  2.0600000000000E+00  0.0000000000000E+00  0.0000000000000E+00
   208  2.0700000000000E+00  0.0000000000000E+00  0.0000000000000E+00
   209  2.0800000000000E+00  0.0000000000000E+00  0.0000000000000E+00
   210  2.0900000000000E+00  0.0000000000000E+00  0.0000000000000E+00
   211  2.1000000000000E+00  0.0000000000000E+00  0.0000000000000E+00
   212  2.1100000000000E+00  0.0000000000000E+00  0.0000000000000E+00
   213  2.1200000000000E+00  0.0000000000000E+00  0.0000000000000E+00
   214  2.1300000000000E+00  0.0000000000000E+00  0.0000000000000E+00
   215  2.1400000000000E+00  0.0000000000000E+00  0.0000000000000E+00
   216  2.1500000000000E+00  0.0000000000000E+00  0.0000000000000E+00
   217  2.1600000000000E+00  0.0000000000000E+00  0.0000000000000E+00
   218  2.1700000000000E+00  0.0000000000000E+00  0.0000000000000E+00
   219  2.1800000000000E+00  0.0000000000000E+00  0.0000000000000E+00
   220  2.1900000000000E+00  0.0000000000000E+00  0.0000000000000E+00
   221  2.2000000000000E+00  0.0000000000000E+00  0.0000000000000E+00
   222  2.2100000000000E+00  0.0000000000000E+00  0.0000000000000E+00
   223  2.2200000000000E+00  0.0000000000000E+00  0.0000000000000E+00
   224  2.2300000000000E+00  0.0000000000000E+00  0.0000000000000E+00
   225  2.2400000000000E+00  0.0000000000000E+00  0.0000000000000E+00
   226  2.2500000000000E+00  0.0000000000000E+00  0.0000000000000E+00
   227  2.2600000000000E+00  0.0000000000000E+00  0.0000000000000E+00
   228  2.2700000000000E+00  0.0000000000000E+00  0.0000000000000E+00
   229  2.2800000000000E+00  0.0000000000000E+00  0.0000000000000E+00
   230  2.2900000000000E+00  0.0000000000000E+00  0.0000000000000E+00
   231  2.3000000000000E+00  0.0000000000000E+00  0.0000000000000E+00
   232  2.3100000000000E+00  0.0000000000000E+00  0.0000000000000E+00
   233  2.3200000000000E+00  0.0000000000000E+00  0.0000000000000E+00
   234  2.3300000000000E+00  0.0000000000000E+00  0.0000000000000E+00
   235  2.3400000000000E+00  0.0000000000000E+00  0.0000000000000E+00
   236  2.3500000000000E+00  0.0000000000000E+00  0.0000000000000E+00
   237  2.3600000000000E+00  0.0000000000000E+00  0.0000000000000E+00
   238  2.3700000000000E+00  0.0000000000000E+00  0.0000000000000E+00
   239  2.3800000000000E+00  0.0000000000000E+00  0.0000000000000E+00
   240  2.3900000000000E+00  0.0000000000000E+00  0.0000000000000E+00
   241  2.4000000000000E+00  0.0000000000000E+00  0.0000000000000E+00
   242  2.4100000000000E+00  0.0000000000000E+00  0.0000000000000E+00
   243  2.4200000000000E+00  0.0000000000000E+00  0.0000000000000E+00
   244  2.4300000000000E+00  0.0000000000000E+00  0.0000000000000E+00
   245  2.4400000000000E+00  0.0000000000000E+00  0.0000000000000E+00
   246  2.4500000000000E+00  0.0000000000000E+00  0.0000000000000E+00
   247  2.4600000000000E+00  0.0000000000000E+00  0.0000000000000E+00
   248  2.4700000000000E+00  0.0000000000000E+00  0.0000000000000E+00
   249  2.4800000000000E+00  0.0000000000000E+00  0.0000000000000E+00
   250  2.4900000000000E+00  0.0000000000000E+00  0.0000000000000E+00
   251  2.5000000000000E+00  0.0000000000000E+00  0.0000000000000E+00
   252  2.5100000000000E+00  0.0000000000000E+00  0.0000000000000E+00
   253  2.5200000000000E+00  0.0000000000000E+00  0.0000000000000E+00
   254  2.5300000000000E+00  0.0000000000000E+00  0.0000000000000E+00
   255  2.5400000000000E+00  0.0000000000000E+00  0.0000000000000E+00
   256  2.5500000000000E+00  0.0000000000000E+00  0.0000000000000E+00
   257  2.5600000000000E+00  0.0000000000000E+00  0.0000000000000E+00
   258  2.5700000000000E+00  0.0000000000000E+00  0.0000000000000E+00
   259  2.5800000000000E+00  0.0000000000000E+00  0.0000000000000E+00
   260  2.5900000000000E+00  0.0000000000000E+00  0.0000000000000E+00
   261  2.6000000000000E+00  0.0000000000000E+00  0.0000000000000E+00
   262  2.6100000000000E+00  0.0000000000000E+00  0.0000000000000E+00
   263  2.6200000000000E+00  0.0000000000000E+00  0.0000000000000E+00
   264  2.6300000000000E+00  0.0000000000000E+00  0.0000000000000E+00
   265  2.6400000000000E+00  0.0000000000000E+00  0.0000000000000E+00
   266  2.6500000000000E+00  0.0000000000000E+00  0.0000000000000E+00
   267  2.6600000000000E+00  0.0000000000000E+00  0.0000000000000E+00
   268  2.6700000000000E+00  0.0000000000000E+00  0.0000000000000E+00
   269  2.6800000000000E+00  0.0000000000000E+00  0.0000000000000E+00
   270  2.6900000000000E+00  0.0000000000000E+00  0.0000000000000E+00
   271  2.7000000000000E+00  0.0000000000000E+00  0.0000000000000E+00
   272  2.7100000000000E+00  0.0000000000000E+00  0.0000000000000E+00
   273  2.7200000000000E+00  0.0000000000000E+00  0.0000000000000E+00
   274  2.7300000000000E+00  0.0000000000000E+00  0.0000000000000E+00
   275  2.7400000000000E+00  0.0000000000000E+00  0.0000000000000E+00
   276  2.7500000000000E+00  0.0000000000000E+00  0.0000000000000E+00
   277  2.7600000000000E+00  0.0000000000000E+00  0.0000000000000E+00
   278  2.7700000000000E+00  0.0000000000000E+00  0.0000000000000E+00
   279  2.7800000000000E+00  0.0000000000000E+00  0.0000000000000E+00
   280  2.7900000000000E+00  0.0000000000000E+00  0.0000000000000E+00
   281  2.8000000000000E+00  0.0000000000000E+00  0.0000000000000E+00
   282  2.8100000000000E+00  0.0000000000000E+00  0.0000000000000E+00
   283  2.8200000000000E+00  0.0000000000000E+00  0.0000000000000E+00
   284  2.8300000000000E+00  0.0000000000000E+00  0.0000000000000E+00
   285  2.8400000000000E+00  0.0000000000000E+00  0.0000000000000E+00
   286  2.8500000000000E+00  0.0000000000000E+00  0.0000000000000E+00
   287  2.8600000000000E+00  0.0000000000000E+00  0.0000000000000E+00
   288  2.8700000000000E+00  0.0000000000000E+00  0.0000000000000E+00
   289  2.8800000000000E+00  0.0000000000000E+00  0.0000000000000E+00
   290  2.8900000000000E+00  0.0000000000000E+00  0.0000000000000E+00
   291  2.9000000000000E+00  0.0000000000000E+00  0.0000000000000E+00
   292  2.9100000000000E+00  0.0000000000000E+00  0.0000000000000E+00
   293  2.9200000000000E+00  0.0000000000000E+00  0.0000000000000E+00
   294  2.9300000000000E+00  0.0000000000000E+00  0.0000000000000E+00
   295  2.9400000000000E+00  0.0000000000000E+00  0.0000000000000E+00
   296  2.9500000000000E+00  0.0000000000000E+00  0.0000000000000E+00
   297  2.9600000000000E+00  0.0000000000000E+00  0.0000000000000E+00
   298  2.9700000000000E+00  0.0000000000000E+00  0.0000000000000E+00
   299  2.9800000000000E+00  0.0000000000000E+00  0.0000000000000E+00
   300  2.9900000000000E+00  0.0000000000000E+00  0.0000000000000E+00
   301  3.0000000000000E+00  0.0000000000000E+00  0.0000000000000E+00
   302  3.0100000000000E+00  0.0000000000000E+00  0.0000000000000E+00
   303  3.0200000000000E+00  0.0000000000000E+00  0.0000000000000E+00
   304  3.0300000000000E+00  0.0000000000000E+00  0.0000000000000E+00
   305  3.0400000000000E+00  0.0000000000000E+00  0.0000000000000E+00
   306  3.0500000000000E+00  0.0000000000000E+00  0.0000000000000E+00
   307  3.0600000000000E+00  0.0000000000000E+00  0.0000000000000E+00
   308  3.0700000000000E+00  0.0000000000000E+00  0.0000000000000E+00
   309  3.0800000000000E+00  0.0000000000000E+00  0.0000000000000E+00
   310  3.0900000000000E+00  0.0000000000000E+00  0.0000000000000E+00
   311  3.1000000000000E+00  0.0000000000000E+00  0.0000000000000E+00
   312  3.1100000000000E+00  0.0000000000000E+00  0.0000000000000E+00
   313  3.1200000000000E+00  0.0000000000000E+00  0.0000000000000E+00
   314  3.1300000000000E+00  0.0000000000000E+00  0.0000000000000E+00
   315  3.1400000000000E+00  0.0000000000000E+00  0.0000000000000E+00
   316  3.1500000000000E+00  0.0000000000000E+00  0.0000000000000E+00
   317  3.1600000000000E+00  0.0000000000000E+00  0.0000000000000E+00
   318  3.1700000000000E+00  0.0000000000000E+00  0.0000000000000E+00
   319  3.1800000000000E+00  0.0000000000000E+00  0.0000000000000E+00
   320  3.1900000000000E+00  0.0000000000000E+00  0.0000000000000E+00
   321  3.2000000000000E+00  0.0000000000000E+00  0.0000000000000E+00
   322  3.2100000000000E+00  0.0000000000000E+00  0.0000000000000E+00
   323  3.2200000000000E+00  0.0000000000000E+00  0.0000000000000E+00
   324  3.2300000000000E+00  0.0000000000000E+00  0.0000000000000E+00
   325  3.2400000000000E+00  0.0000000000000E+00  0.0000000000000E+00
   326  3.2500000000000E+00  0.0000000000000E+00  0.0000000000000E+00
   327  3.2600000000000E+00  0.0000000000000E+00  0.0000000000000E+00
   328  3.2700000000000E+00  0.0000000000000E+00  0.0000000000000E+00
   329  3.2800000000000E+00  0.0000000000000E+00  0.0000000000000E+00
   330  3.2900000000000E+00  0.0000000000000E+00  0.0000000000000E+00
   331  3.3000000000000E+00  0.0000000000000E+00  0.0000000000000E+00
   332  3.3100000000000E+00  0.0000000000000E+00  0.0000000000000E+00
   333  3.3200000000000E+00  0.0000000000000E+00  0.0000000000000E+00
   334  3.3300000000000E+00  0.0000000000000E+00  0.0000000000000E+00
   335  3.3400000000000E+00  0.0000000000000E+00  0.0000000000000E+00
   336  3.3500000000000E+00  0.0000000000000E+00  0.0000000000000E+00
   337  3.3600000000000E+00  0.0000000000000E+00  0.0000000000000E+00
   338  3.3700000000000E+00  0.0000000000000E+00  0.0000000000000E+00
   339  3.3800000000000E+00  0.0000000000000E+00  0.0000000000000E+00
   340  3.3900000000000E+00  0.0000000000000E+00  0.0000000000000E+00
   341  3.4000000000000E+00  0.0000000000000E+00  0.0000000000000E+00
   342  3.4100000000000E+00  0.0000000000000E+00  0.0000000000000E+00
   343  3.4200000000000E+00  0.0000000000000E+00  0.0000000000000E+00
   344  3.4300000000000E+00  0.0000000000000E+00  0.0000000000000E+00
   345  3.4400000000000E+00  0.0000000000000E+00  0.0000000000000E+00
   346  3.4500000000000E+00  0.0000000000000E+00  0.0000000000000E+00
   347  3.4600000000000E+00  0.0000000000000E+00  0.0000000000000E+00
   348  3.4700000000000E+00  0.0000000000000E+00  0.0000000000000E+00
   349  3.4800000000000E+00  0.0000000000000E+00  0.0000000000000E+00
   350  3.4900000000000E+00  0.0000000000000E+00  0.0000000000000E+00
   351  3.5000000000000E+00  0.0000000000000E+00  0.0000000000000E+00
   352  3.5100000000000E+00  0.0000000000000E+00  0.0000000000000E+00
   353  3.5200000000000E+00  0.0000000000000E+00  0.0000000000000E+00
   354  3.5300000000000E+00  0.0000000000000E+00  0.0000000000000E+00
   355  3.5400000000000E+00  0.0000000000000E+00  0.0000000000000E+00
   356  3.5500000000000E+00  0.0000000000000E+00  0.0000000000000E+00
   357  3.5600000000000E+00  0.0000000000000E+00  0.0000000000000E+00
   358  3.5700000000000E+00  0.0000000000000E+00  0.0000000000000E+00
   359  3.5800000000000E+00  0.0000000000000E+00  0.0000000000000E+00
   360  3.5900000000000E+00  0.0000000000000E+00  0.0000000000000E+00
   361  3.6000000000000E+00  0.0000000000000E+00  0.0000000000000E+00
   362  3.6100000000000E+00  0.0000000000000E+00  0.0000000000000E+00
   363  3.6200000000000E+00  0.0000000000000E+00  0.0000000000000E+00
   364  3.6300000000000E+00  0.0000000000000E+00  0.0000000000000E+00
   365  3.6400000000000E+00  0.0000000000000E+00  0.0000000000000E+00
   366  3.6500000000000E+00  0.0000000000000E+00  0.0000000000000E+00
   367  3.6600000000000E+00  0.0000000000000E+00  0.0000000000000E+00
   368  3.6700000000000E+00  0.0000000000000E+00  0.0000000000000E+00
   369  3.6800000000000E+00  0.0000000000000E+00  0.0000000000000E+00
   370  3.6900000000000E+00  0.0000000000000E+00  0.0000000000000E+00
   371  3.7000000000000E+00  0.0000000000000E+00  0.0000000000000E+00
   372  3.7100000000000E+00  0.0000000000000E+00  0.0000000000000E+00
   373  3.7200000000000E+00  0.0000000000000E+00  0.0000000000000E+00
   374  3.7300000000000E+00  0.0000000000000E+00  0.0000000000000E+00
   375  3.7400000000000E+00  0.0000000000000E+00  0.0000000000000E+00
   376  3.7500000000000E+00  0.0000000000000E+00  0.0000000000000E+00
   377  3.7600000000000E+00  0.0000000000000E+00  0.0000000000000E+00
   378  3.7700000000000E+00  0.0000000000000E+00  0.0000000000000E+00
   379  3.7800000000000E+00  0.0000000000000E+00  0.0000000000000E+00
   380  3.7900000000000E+00  0.0000000000000E+00  0.0000000000000E+00
   381  3.8000000000000E+00  0.0000000000000E+00  0.0000000000000E+00
   382  3.8100000000000E+00  0.0000000000000E+00  0.0000000000000E+00
   383  3.8200000000000E+00  0.0000000000000E+00  0.0000000000000E+00
   384  3.8300000000000E+00  0.0000000000000E+00  0.0000000000000E+00
   385  3.8400000000000E+00  0.0000000000000E+00  0.0000000000000E+00
   386  3.8500000000000E+00  0.0000000000000E+00  0.0000000000000E+00
   387  3.8600000000000E+00  0.0000000000000E+00  0.0000000000000E+00
   388  3.8700000000000E+00  0.0000000000000E+00  0.0000000000000E+00
   389  3.8800000000000E+00  0.0000000000000E+00  0.0000000000000E+00
   390  3.8900000000000E+00  0.0000000000000E+00  0.0000000000000E+00
   391  3.9000000000000E+00  0.0000000000000E+00  0.0000000000000E+00
   392  3.9100000000000E+00  0.0000000000000E+00  0.0000000000000E+00
   393  3.9200000000000E+00  0.0000000000000E+00  0.0000000000000E+00
   394  3.9300000000000E+00  0.0000000000000E+00  0.0000000000000E+00
   395  3.9400000000000E+00  0.0000000000000E+00  0.0000000000000E+00
   396  3.9500000000000E+00  0.0000000000000E+00  0.0000000000000E+00
   397  3.9600000000000E+00  0.0000000000000E+00  0.0000000000000E+00
   398  3.9700000000000E+00  0.0000000000000E+00  0.0000000000000E+00
   399  3.9800000000000E+00  0.0000000000000E+00  0.0000000000000E+00
   400  3.9900000000000E+00  0.0000000000000E+00  0.0000000000000E+00
   401  4.0000000000000E+00  0.0000000000000E+00  0.0000000000000E+00
   402  4.0100000000000E+00  0.0000000000000E+00  0.0000000000000E+00
   403  4.0200000000000E+00  0.0000000000000E+00  0.0000000000000E+00
   404  4.0300000000000E+00  0.0000000000000E+00  0.0000000000000E+00
   405  4.0400000000000E+00  0.0000000000000E+00  0.0000000000000E+00
   406  4.0500000000000E+00  0.0000000000000E+00  0.0000000000000E+00
   407  4.0600000000000E+00  0.0000000000000E+00  0.0000000000000E+00
   408  4.0700000000000E+00  0.0000000000000E+00  0.0000000000000E+00
   409  4.0800000000000E+00  0.0000000000000E+00  0.0000000000000E+00
   410  4.0900000000000E+00  0.0000000000000E+00  0.0000000000000E+00
   411  4.1000000000000E+00  0.0000000000000E+00  0.0000000000000E+00
   412  4.1100000000000E+00  0.0000000000000E+00  0.0000000000000E+00
   413  4.1200000000000E+00  0.0000000000000E+00  0.0000000000000E+00
   414  4.1300000000000E+00  0.0000000000000E+00  0.0000000000000E+00
   415  4.1400000000000E+00  0.0000000000000E+00  0.0000000000000E+00
   416  4.1500000000000E+00  0.0000000000000E+00  0.0000000000000E+00
   417  4.1600000000000E+00  0.0000000000000E+00  0.0000000000000E+00
   418  4.1700000000000E+00  0.0000000000000E+00  0.0000000000000E+00
   419  4.1800000000000E+00  0.0000000000000E+00  0.0000000000000E+00
   420  4.1900000000000E+00  0.0000000000000E+00  0.0000000000000E+00
   421  4.2000000000000E+00  0.0000000000000E+00  0.0000000000000E+00
   422  4.2100000000000E+00  0.0000000000000E+00  0.0000000000000E+00
   423  4.2200000000000E+00  0.0000000000000E+00  0.0000000000000E+00