Al   ONCVPSP-2.1.1   r_core=    1.29657 2.41091
    13.0000   11.0000   150105   zatom,zion,pspd
    8   11   1   4   600   0   pspcod,pspxc,lmax,lloc,mmax,r2well
    5.99000000   0.00000000   0.00000000   rchrg fchrg qchrg
    2   2   0   0   0   nproj
    1   1   extension_switch
       0                         2.6853919301500E+00 -4.1465097971500E-01
     1  0.0000000000000E+00  0.0000000000000E+00  0.0000000000000E+00
     2  1.0000000000000E-02  8.1959788337000E-02 -7.7175952907000E-03
     3  2.0000000000000E-02  1.6389680452000E-01 -1.4916854342000E-02
     4  3.0000000000000E-02  2.4578292762000E-01 -2.1086880496000E-02
     5  4.0000000000000E-02  3.2757945385000E-01 -2.5731546758000E-02
     6  5.0000000000000E-02  4.0923209012000E-01 -2.8376608547000E-02
     7  6.0000000000000E-02  4.9066628384000E-01 -2.8576494606000E-02
     8  7.0000000000000E-02  5.7178299213000E-01 -2.5920676461000E-02
     9  8.0000000000000E-02  6.5245498564000E-01 -2.0039523233000E-02
    10  9.0000000000000E-02  7.3252377312000E-01 -1.0609556503000E-02
    11  1.0000000000000E-01  8.1179722184000E-01  2.6419710152000E-03
    12  1.1000000000000E-01  8.9004793688000E-01  1.9933238862000E-02
    13  1.2000000000000E-01  9.6701244883000E-01  4.1424818823000E-02
    14  1.3000000000000E-01  1.0423912454000E+00  6.7217473921000E-02
    15  1.4000000000000E-01  1.1158496674000E+00  9.7350826557000E-02
    16  1.5000000000000E-01  1.1870196733000E+00  1.3180291127000E-01
    17  1.6000000000000E-01  1.2555024628000E+00  1.7049061644000E-01
    18  1.7000000000000E-01  1.3208719323000E+00  2.1327100328000E-01
    19  1.8000000000000E-01  1.3826789204000E+00  2.5994347910000E-01
    20  1.9000000000000E-01  1.4404561895000E+00  3.1025278862000E-01
    21  2.0000000000000E-01  1.4937240648000E+00  3.6389277025000E-01
    22  2.1000000000000E-01  1.5419966682000E+00  4.2051082780000E-01
    23  2.2000000000000E-01  1.5847886227000E+00  4.7971303013000E-01
    24  2.3000000000000E-01  1.6216221501000E+00  5.4106977360000E-01
    25  2.4000000000000E-01  1.6520344202000E+00  6.0412189959000E-01
    26  2.5000000000000E-01  1.6755850973000E+00  6.6838722019000E-01
    27  2.6000000000000E-01  1.6918638179000E+00  7.3336724280000E-01
    28  2.7000000000000E-01  1.7004976921000E+00  7.9855416069000E-01
    29  2.8000000000000E-01  1.7011584600000E+00  8.6343781125000E-01
    30  2.9000000000000E-01  1.6935693577000E+00  9.2751264008000E-01
    31  3.0000000000000E-01  1.6775114916000E+00  9.9028450228000E-01
    32  3.1000000000000E-01  1.6528296167000E+00  1.0512772086000E+00
    33  3.2000000000000E-01  1.6194371715000E+00  1.1100386765000E+00
    34  3.3000000000000E-01  1.5773206519000E+00  1.1661467811000E+00
    35  3.4000000000000E-01  1.5265428914000E+00  1.2192144736000E+00
    36  3.5000000000000E-01  1.4672455267000E+00  1.2688944425000E+00
    37  3.6000000000000E-01  1.3996503949000E+00  1.3148830711000E+00
    38  3.7000000000000E-01  1.3240598869000E+00  1.3569237057000E+00
    39  3.8000000000000E-01  1.2408561029000E+00  1.3948090182000E+00
    40  3.9000000000000E-01  1.1504990593000E+00  1.4283828005000E+00
    41  4.0000000000000E-01  1.0535236873000E+00  1.4575408219000E+00
    42  4.1000000000000E-01  9.5053575514000E-01  1.4822308453000E+00
    43  4.2000000000000E-01  8.4220679309000E-01  1.5024519230000E+00
    44  4.3000000000000E-01  7.2926802100000E-01  1.5182528874000E+00
    45  4.4000000000000E-01  6.1250336841000E-01  1.5297301022000E+00
    46  4.5000000000000E-01  4.9274167614000E-01  1.5370245181000E+00
    47  4.6000000000000E-01  3.7084818278000E-01  1.5403180955000E+00
    48  4.7000000000000E-01  2.4771546294000E-01  1.5398296691000E+00
    49  4.8000000000000E-01  1.2425386707000E-01  1.5358103451000E+00
    50  4.9000000000000E-01  1.3813194463000E-03  1.5285384000000E+00
    51  5.0000000000000E-01 -1.1998657264000E-01  1.5183139567000E+00
    52  5.1000000000000E-01 -2.3894639470000E-01  1.5054535589000E+00
    53  5.2000000000000E-01 -3.5461775436000E-01  1.4902842587000E+00
    54  5.3000000000000E-01 -4.6615303210000E-01  1.4731378880000E+00
    55  5.4000000000000E-01 -5.7274544611000E-01  1.4543460523000E+00
    56  5.5000000000000E-01 -6.7364109027000E-01  1.4342333766000E+00
    57  5.6000000000000E-01 -7.6814360571000E-01  1.4131138878000E+00
    58  5.7000000000000E-01 -8.5562532978000E-01  1.3912845692000E+00
    59  5.8000000000000E-01 -9.3553062351000E-01  1.3690225108000E+00
    60  5.9000000000000E-01 -1.0073854605000E+00  1.3465791146000E+00
    61  6.0000000000000E-01 -1.0707974255000E+00  1.3241790763000E+00
    62  6.1000000000000E-01 -1.1254649411000E+00  1.3020147293000E+00
    63  6.2000000000000E-01 -1.1711748262000E+00  1.2802464515000E+00
    64  6.3000000000000E-01 -1.2078060192000E+00  1.2589999252000E+00
    65  6.4000000000000E-01 -1.2353302905000E+00  1.2383649827000E+00
    66  6.5000000000000E-01 -1.2538089488000E+00  1.2183967307000E+00
    67  6.6000000000000E-01 -1.2633921704000E+00  1.1991152464000E+00
    68  6.7000000000000E-01 -1.2643161462000E+00  1.1805064719000E+00
    69  6.8000000000000E-01 -1.2568972238000E+00  1.1625248997000E+00
    70  6.9000000000000E-01 -1.2415270112000E+00  1.1450957228000E+00
    71  7.0000000000000E-01 -1.2186667307000E+00  1.1281173437000E+00
    72  7.1000000000000E-01 -1.1888397354000E+00  1.1114649877000E+00
    73  7.2000000000000E-01 -1.1526235486000E+00  1.0949946488000E+00
    74  7.3000000000000E-01 -1.1106417836000E+00  1.0785470304000E+00
    75  7.4000000000000E-01 -1.0635554309000E+00  1.0619518542000E+00
    76  7.5000000000000E-01 -1.0120542028000E+00  1.0450321853000E+00
    77  7.6000000000000E-01 -9.5684640407000E-01  1.0276093245000E+00
    78  7.7000000000000E-01 -8.9865036693000E-01  1.0095071212000E+00
    79  7.8000000000000E-01 -8.3818527115000E-01  9.9055641022000E-01
    80  7.9000000000000E-01 -7.7616221762000E-01  9.7059928504000E-01
    81  8.0000000000000E-01 -7.1327568510000E-01  9.4949311358000E-01
    82  8.1000000000000E-01 -6.5019544375000E-01  9.2711424462000E-01
    83  8.2000000000000E-01 -5.8755902571000E-01  9.0336134563000E-01
    84  8.3000000000000E-01 -5.2596484036000E-01  8.7815832242000E-01
    85  8.4000000000000E-01 -4.6596600774000E-01  8.5145678087000E-01
    86  8.5000000000000E-01 -4.0806496843000E-01  8.2323800106000E-01
    87  8.6000000000000E-01 -3.5270891279000E-01  7.9351440554000E-01
    88  8.7000000000000E-01 -3.0028605589000E-01  7.6233051397000E-01
    89  8.8000000000000E-01 -2.5112276889000E-01  7.2976338788000E-01
    90  8.9000000000000E-01 -2.0548156076000E-01  6.9592258017000E-01
    91  9.0000000000000E-01 -1.6355988888000E-01  6.6094961455000E-01
    92  9.1000000000000E-01 -1.2548976165000E-01  6.2501703037000E-01
    93  9.2000000000000E-01 -9.1338081356000E-02  5.8832703790000E-01
    94  9.3000000000000E-01 -6.1107635535000E-02  5.5110988669000E-01
    95  9.4000000000000E-01 -3.4738766420000E-02  5.1362180519000E-01
    96  9.5000000000000E-01 -1.2113182579000E-02  4.7614111278000E-01
    97  9.6000000000000E-01  6.9366425281000E-03  4.3895065095000E-01
    98  9.7000000000000E-01  2.2612724892000E-02  4.0231969623000E-01
    99  9.8000000000000E-01  3.5145144523000E-02  3.6650170831000E-01
   100  9.9000000000000E-01  4.4786293794000E-02  3.3173181093000E-01
   101  1.0000000000000E+00  5.1804938121000E-02  2.9822472583000E-01
   102  1.0100000000000E+00  5.6480406614000E-02  2.6617282323000E-01
   103  1.0200000000000E+00  5.9097799689000E-02  2.3574556921000E-01
   104  1.0300000000000E+00  5.9941271770000E-02  2.0708504676000E-01
   105  1.0400000000000E+00  5.9288880955000E-02  1.8030598672000E-01
   106  1.0500000000000E+00  5.7409099658000E-02  1.5549603366000E-01
   107  1.0600000000000E+00  5.4556678865000E-02  1.3271474535000E-01
   108  1.0700000000000E+00  5.0970738549000E-02  1.1199467316000E-01
   109  1.0800000000000E+00  4.6869448638000E-02  9.3339304043000E-02
   110  1.0900000000000E+00  4.2446513423000E-02  7.6723714857000E-02
   111  1.1000000000000E+00  3.7873610309000E-02  6.2098903174000E-02
   112  1.1100000000000E+00  3.3298679834000E-02  4.9392524523000E-02
   113  1.1200000000000E+00  2.8847425361000E-02  3.8511312292000E-02
   114  1.1300000000000E+00  2.4614620657000E-02  2.9340007125000E-02
   115  1.1400000000000E+00  2.0675219413000E-02  2.1749511592000E-02
   116  1.1500000000000E+00  1.7083365056000E-02  1.5598113229000E-02
   117  1.1600000000000E+00  1.3873528814000E-02  1.0733579834000E-02
   118  1.1700000000000E+00  1.1058091993000E-02  6.9985976130000E-03
   119  1.1800000000000E+00  8.6372297172000E-03  4.2344967945000E-03
   120  1.1900000000000E+00  6.5992973718000E-03  2.2819866171000E-03
   121  1.2000000000000E+00  4.9200658773000E-03  9.8836865576000E-04
   122  1.2100000000000E+00  3.5689959976000E-03  2.1129921025000E-04
   123  1.2200000000000E+00  2.5113059388000E-03 -1.8286643702000E-04
   124  1.2300000000000E+00  1.7086013343000E-03 -3.1447636558000E-04
   125  1.2400000000000E+00  1.1227305605000E-03 -2.8064364907000E-04
   126  1.2500000000000E+00  7.1611571407000E-04 -1.6485866071000E-04
   127  1.2600000000000E+00  4.5225014442000E-04 -3.3670708672000E-05
   128  1.2700000000000E+00  2.9869025096000E-04  7.7242412191000E-05
   129  1.2800000000000E+00  2.2376348042000E-04  1.4571537069000E-04
   130  1.2900000000000E+00  2.0808442838000E-04  1.8119691635000E-04
   131  1.3000000000000E+00  1.5295374786000E-04  1.3914527860000E-04
   132  1.3100000000000E+00  2.3398705055000E-05  2.1967252687000E-05
   133  1.3200000000000E+00 -1.2623857798000E-05 -1.1290354030000E-05
   134  1.3300000000000E+00  0.0000000000000E+00  0.0000000000000E+00
   135  1.3400000000000E+00  0.0000000000000E+00  0.0000000000000E+00
   136  1.3500000000000E+00  0.0000000000000E+00  0.0000000000000E+00
   137  1.3600000000000E+00  0.0000000000000E+00  0.0000000000000E+00
   138  1.3700000000000E+00  0.0000000000000E+00  0.0000000000000E+00
   139  1.3800000000000E+00  0.0000000000000E+00  0.0000000000000E+00
   140  1.3900000000000E+00  0.0000000000000E+00  0.0000000000000E+00
   141  1.4000000000000E+00  0.0000000000000E+00  0.0000000000000E+00
   142  1.4100000000000E+00  0.0000000000000E+00  0.0000000000000E+00
   143  1.4200000000000E+00  0.0000000000000E+00  0.0000000000000E+00
   144  1.4300000000000E+00  0.0000000000000E+00  0.0000000000000E+00
   145  1.4400000000000E+00  0.0000000000000E+00  0.0000000000000E+00
   146  1.4500000000000E+00  0.0000000000000E+00  0.0000000000000E+00
   147  1.4600000000000E+00  0.0000000000000E+00  0.0000000000000E+00
   148  1.4700000000000E+00  0.0000000000000E+00  0.0000000000000E+00
   149  1.4800000000000E+00  0.0000000000000E+00  0.0000000000000E+00
   150  1.4900000000000E+00  0.0000000000000E+00  0.0000000000000E+00
   151  1.5000000000000E+00  0.0000000000000E+00  0.0000000000000E+00
   152  1.5100000000000E+00  0.0000000000000E+00  0.0000000000000E+00
   153  1.5200000000000E+00  0.0000000000000E+00  0.0000000000000E+00
   154  1.5300000000000E+00  0.0000000000000E+00  0.0000000000000E+00
   155  1.5400000000000E+00  0.0000000000000E+00  0.0000000000000E+00
   156  1.5500000000000E+00  0.0000000000000E+00  0.0000000000000E+00
   157  1.5600000000000E+00  0.0000000000000E+00  0.0000000000000E+00
   158  1.5700000000000E+00  0.0000000000000E+00  0.0000000000000E+00
   159  1.5800000000000E+00  0.0000000000000E+00  0.0000000000000E+00
   160  1.5900000000000E+00  0.0000000000000E+00  0.0000000000000E+00
   161  1.6000000000000E+00  0.0000000000000E+00  0.0000000000000E+00
   162  1.6100000000000E+00  0.0000000000000E+00  0.0000000000000E+00
   163  1.6200000000000E+00  0.0000000000000E+00  0.0000000000000E+00
   164  1.6300000000000E+00  0.0000000000000E+00  0.0000000000000E+00
   165  1.6400000000000E+00  0.0000000000000E+00  0.0000000000000E+00
   166  1.6500000000000E+00  0.0000000000000E+00  0.0000000000000E+00
   167  1.6600000000000E+00  0.0000000000000E+00  0.0000000000000E+00
   168  1.6700000000000E+00  0.0000000000000E+00  0.0000000000000E+00
   169  1.6800000000000E+00  0.0000000000000E+00  0.0000000000000E+00
   170  1.6900000000000E+00  0.0000000000000E+00  0.0000000000000E+00
   171  1.7000000000000E+00  0.0000000000000E+00  0.0000000000000E+00
   172  1.7100000000000E+00  0.0000000000000E+00  0.0000000000000E+00
   173  1.7200000000000E+00  0.0000000000000E+00  0.0000000000000E+00
   174  1.7300000000000E+00  0.0000000000000E+00  0.0000000000000E+00
   175  1.7400000000000E+00  0.0000000000000E+00  0.0000000000000E+00
   176  1.7500000000000E+00  0.0000000000000E+00  0.0000000000000E+00
   177  1.7600000000000E+00  0.0000000000000E+00  0.0000000000000E+00
   178  1.7700000000000E+00  0.0000000000000E+00  0.0000000000000E+00
   179  1.7800000000000E+00  0.0000000000000E+00  0.0000000000000E+00
   180  1.7900000000000E+00  0.0000000000000E+00  0.0000000000000E+00
   181  1.8000000000000E+00  0.0000000000000E+00  0.0000000000000E+00
   182  1.8100000000000E+00  0.0000000000000E+00  0.0000000000000E+00
   183  1.8200000000000E+00  0.0000000000000E+00  0.0000000000000E+00
   184  1.8300000000000E+00  0.0000000000000E+00  0.0000000000000E+00
   185  1.8400000000000E+00  0.0000000000000E+00  0.0000000000000E+00
   186  1.8500000000000E+00  0.0000000000000E+00  0.0000000000000E+00
   187  1.8600000000000E+00  0.0000000000000E+00  0.0000000000000E+00
   188  1.8700000000000E+00  0.0000000000000E+00  0.0000000000000E+00
   189  1.8800000000000E+00  0.0000000000000E+00  0.0000000000000E+00
   190  1.8900000000000E+00  0.0000000000000E+00  0.0000000000000E+00
   191  1.9000000000000E+00  0.0000000000000E+00  0.0000000000000E+00
   192  1.9100000000000E+00  0.0000000000000E+00  0.0000000000000E+00
   193  1.9200000000000E+00  0.0000000000000E+00  0.0000000000000E+00
   194  1.9300000000000E+00  0.0000000000000E+00  0.0000000000000E+00
   195  1.9400000000000E+00  0.0000000000000E+00  0.0000000000000E+00
   196  1.9500000000000E+00  0.0000000000000E+00  0.0000000000000E+00
   197  1.9600000000000E+00  0.0000000000000E+00  0.0000000000000E+00
   198  1.9700000000000E+00  0.0000000000000E+00  0.0000000000000E+00
   199  1.9800000000000E+00  0.0000000000000E+00  0.0000000000000E+00
   200  1.9900000000000E+00  0.0000000000000E+00  0.0000000000000E+00
   201  2.0000000000000E+00  0.0000000000000E+00  0.0000000000000E+00
   202  2.0100000000000E+00  0.0000000000000E+00  0.0000000000000E+00
   203  2.0200000000000E+00  0.0000000000000E+00  0.0000000000000E+00
   204  2.0300000000000E+00  0.0000000000000E+00  0.0000000000000E+00
   205  2.0400000000000E+00  0.0000000000000E+00  0.0000000000000E+00
   206  2.0500000000000E+00  0.0000000000000E+00  0.0000000000000E+00
   207  2.0600000000000E+00  0.0000000000000E+00  0.0000000000000E+00
   208  2.0700000000000E+00  0.0000000000000E+00  0.0000000000000E+00
   209  2.0800000000000E+00  0.0000000000000E+00  0.0000000000000E+00
   210  2.0900000000000E+00  0.0000000000000E+00  0.0000000000000E+00
   211  2.1000000000000E+00  0.0000000000000E+00  0.0000000000000E+00
   212  2.1100000000000E+00  0.0000000000000E+00  0.0000000000000E+00
   213  2.1200000000000E+00  0.0000000000000E+00  0.0000000000000E+00
   214  2.1300000000000E+00  0.0000000000000E+00  0.0000000000000E+00
   215  2.1400000000000E+00  0.0000000000000E+00  0.0000000000000E+00
   216  2.1500000000000E+00  0.0000000000000E+00  0.0000000000000E+00
   217  2.1600000000000E+00  0.0000000000000E+00  0.0000000000000E+00
   218  2.1700000000000E+00  0.0000000000000E+00  0.0000000000000E+00
   219  2.1800000000000E+00  0.0000000000000E+00  0.0000000000000E+00
   220  2.1900000000000E+00  0.0000000000000E+00  0.0000000000000E+00
   221  2.2000000000000E+00  0.0000000000000E+00  0.0000000000000E+00
   222  2.2100000000000E+00  0.0000000000000E+00  0.0000000000000E+00
   223  2.2200000000000E+00  0.0000000000000E+00  0.0000000000000E+00
   224  2.2300000000000E+00  0.0000000000000E+00  0.0000000000000E+00
   225  2.2400000000000E+00  0.0000000000000E+00  0.0000000000000E+00
   226  2.2500000000000E+00  0.0000000000000E+00  0.0000000000000E+00
   227  2.2600000000000E+00  0.0000000000000E+00  0.0000000000000E+00
   228  2.2700000000000E+00  0.0000000000000E+00  0.0000000000000E+00
   229  2.2800000000000E+00  0.0000000000000E+00  0.0000000000000E+00
   230  2.2900000000000E+00  0.0000000000000E+00  0.0000000000000E+00
   231  2.3000000000000E+00  0.0000000000000E+00  0.0000000000000E+00
   232  2.3100000000000E+00  0.0000000000000E+00  0.0000000000000E+00
   233  2.3200000000000E+00  0.0000000000000E+00  0.0000000000000E+00
   234  2.3300000000000E+00  0.0000000000000E+00  0.0000000000000E+00
   235  2.3400000000000E+00  0.0000000000000E+00  0.0000000000000E+00
   236  2.3500000000000E+00  0.0000000000000E+00  0.0000000000000E+00
   237  2.3600000000000E+00  0.0000000000000E+00  0.0000000000000E+00
   238  2.3700000000000E+00  0.0000000000000E+00  0.0000000000000E+00
   239  2.3800000000000E+00  0.0000000000000E+00  0.0000000000000E+00
   240  2.3900000000000E+00  0.0000000000000E+00  0.0000000000000E+00
   241  2.4000000000000E+00  0.0000000000000E+00  0.0000000000000E+00
   242  2.4100000000000E+00  0.0000000000000E+00  0.0000000000000E+00
   243  2.4200000000000E+00  0.0000000000000E+00  0.0000000000000E+00
   244  2.4300000000000E+00  0.0000000000000E+00  0.0000000000000E+00
   245  2.4400000000000E+00  0.0000000000000E+00  0.0000000000000E+00
   246  2.4500000000000E+00  0.0000000000000E+00  0.0000000000000E+00
   247  2.4600000000000E+00  0.0000000000000E+00  0.0000000000000E+00
   248  2.4700000000000E+00  0.0000000000000E+00  0.0000000000000E+00
   249  2.4800000000000E+00  0.0000000000000E+00  0.0000000000000E+00
   250  2.4900000000000E+00  0.0000000000000E+00  0.0000000000000E+00
   251  2.5000000000000E+00  0.0000000000000E+00  0.0000000000000E+00
   252  2.5100000000000E+00  0.0000000000000E+00  0.0000000000000E+00
   253  2.5200000000000E+00  0.0000000000000E+00  0.0000000000000E+00
   254  2.5300000000000E+00  0.0000000000000E+00  0.0000000000000E+00
   255  2.5400000000000E+00  0.0000000000000E+00  0.0000000000000E+00
   256  2.5500000000000E+00  0.0000000000000E+00  0.0000000000000E+00
   257  2.5600000000000E+00  0.0000000000000E+00  0.0000000000000E+00
   258  2.5700000000000E+00  0.0000000000000E+00  0.0000000000000E+00
   259  2.5800000000000E+00  0.0000000000000E+00  0.0000000000000E+00
   260  2.5900000000000E+00  0.0000000000000E+00  0.0000000000000E+00
   261  2.6000000000000E+00  0.0000000000000E+00  0.0000000000000E+00
   262  2.6100000000000E+00  0.0000000000000E+00  0.0000000000000E+00
   263  2.6200000000000E+00  0.0000000000000E+00  0.0000000000000E+00
   264  2.6300000000000E+00  0.0000000000000E+00  0.0000000000000E+00
   265  2.6400000000000E+00  0.0000000000000E+00  0.0000000000000E+00
   266  2.6500000000000E+00  0.0000000000000E+00  0.0000000000000E+00
   267  2.6600000000000E+00  0.0000000000000E+00  0.0000000000000E+00
   268  2.6700000000000E+00  0.0000000000000E+00  0.0000000000000E+00
   269  2.6800000000000E+00  0.0000000000000E+00  0.0000000000000E+00
   270  2.6900000000000E+00  0.0000000000000E+00  0.0000000000000E+00
   271  2.7000000000000E+00  0.0000000000000E+00  0.0000000000000E+00
   272  2.7100000000000E+00  0.0000000000000E+00  0.0000000000000E+00
   273  2.7200000000000E+00  0.0000000000000E+00  0.0000000000000E+00
   274  2.7300000000000E+00  0.0000000000000E+00  0.0000000000000E+00
   275  2.7400000000000E+00  0.0000000000000E+00  0.0000000000000E+00
   276  2.7500000000000E+00  0.0000000000000E+00  0.0000000000000E+00
   277  2.7600000000000E+00  0.0000000000000E+00  0.0000000000000E+00
   278  2.7700000000000E+00  0.0000000000000E+00  0.0000000000000E+00
   279  2.7800000000000E+00  0.0000000000000E+00  0.0000000000000E+00
   280  2.7900000000000E+00  0.0000000000000E+00  0.0000000000000E+00
   281  2.8000000000000E+00  0.0000000000000E+00  0.0000000000000E+00
   282  2.8100000000000E+00  0.0000000000000E+00  0.0000000000000E+00
   283  2.8200000000000E+00  0.0000000000000E+00  0.0000000000000E+00
   284  2.8300000000000E+00  0.0000000000000E+00  0.0000000000000E+00
   285  2.8400000000000E+00  0.0000000000000E+00  0.0000000000000E+00
   286  2.8500000000000E+00  0.0000000000000E+00  0.0000000000000E+00
   287  2.8600000000000E+00  0.0000000000000E+00  0.0000000000000E+00
   288  2.8700000000000E+00  0.0000000000000E+00  0.0000000000000E+00
   289  2.8800000000000E+00  0.0000000000000E+00  0.0000000000000E+00
   290  2.8900000000000E+00  0.0000000000000E+00  0.0000000000000E+00
   291  2.9000000000000E+00  0.0000000000000E+00  0.0000000000000E+00
   292  2.9100000000000E+00  0.0000000000000E+00  0.0000000000000E+00
   293  2.9200000000000E+00  0.0000000000000E+00  0.0000000000000E+00
   294  2.9300000000000E+00  0.0000000000000E+00  0.0000000000000E+00
   295  2.9400000000000E+00  0.0000000000000E+00  0.0000000000000E+00
   296  2.9500000000000E+00  0.0000000000000E+00  0.0000000000000E+00
   297  2.9600000000000E+00  0.0000000000000E+00  0.0000000000000E+00
   298  2.9700000000000E+00  0.0000000000000E+00  0.0000000000000E+00
   299  2.9800000000000E+00  0.0000000000000E+00  0.0000000000000E+00
   300  2.9900000000000E+00  0.0000000000000E+00  0.0000000000000E+00
   301  3.0000000000000E+00  0.0000000000000E+00  0.0000000000000E+00
   302  3.0100000000000E+00  0.0000000000000E+00  0.0000000000000E+00
   303  3.0200000000000E+00  0.0000000000000E+00  0.0000000000000E+00
   304  3.0300000000000E+00  0.0000000000000E+00  0.0000000000000E+00
   305  3.0400000000000E+00  0.0000000000000E+00  0.0000000000000E+00
   306  3.0500000000000E+00  0.0000000000000E+00  0.0000000000000E+00
   307  3.0600000000000E+00  0.0000000000000E+00  0.0000000000000E+00
   308  3.0700000000000E+00  0.0000000000000E+00  0.0000000000000E+00
   309  3.0800000000000E+00  0.0000000000000E+00  0.0000000000000E+00
   310  3.0900000000000E+00  0.0000000000000E+00  0.0000000000000E+00
   311  3.1000000000000E+00  0.0000000000000E+00  0.0000000000000E+00
   312  3.1100000000000E+00  0.0000000000000E+00  0.0000000000000E+00
   313  3.1200000000000E+00  0.0000000000000E+00  0.0000000000000E+00
   314  3.1300000000000E+00  0.0000000000000E+00  0.0000000000000E+00
   315  3.1400000000000E+00  0.0000000000000E+00  0.0000000000000E+00
   316  3.1500000000000E+00  0.0000000000000E+00  0.0000000000000E+00
   317  3.1600000000000E+00  0.0000000000000E+00  0.0000000000000E+00
   318  3.1700000000000E+00  0.0000000000000E+00  0.0000000000000E+00
   319  3.1800000000000E+00  0.0000000000000E+00  0.0000000000000E+00
   320  3.1900000000000E+00  0.0000000000000E+00  0.0000000000000E+00
   321  3.2000000000000E+00  0.0000000000000E+00  0.0000000000000E+00
   322  3.2100000000000E+00  0.0000000000000E+00  0.0000000000000E+00
   323  3.2200000000000E+00  0.0000000000000E+00  0.0000000000000E+00
   324  3.2300000000000E+00  0.0000000000000E+00  0.0000000000000E+00
   325  3.2400000000000E+00  0.0000000000000E+00  0.0000000000000E+00
   326  3.2500000000000E+00  0.0000000000000E+00  0.0000000000000E+00
   327  3.2600000000000E+00  0.0000000000000E+00  0.0000000000000E+00
   328  3.2700000000000E+00  0.0000000000000E+00  0.0000000000000E+00
   329  3.2800000000000E+00  0.0000000000000E+00  0.0000000000000E+00
   330  3.2900000000000E+00  0.0000000000000E+00  0.0000000000000E+00
   331  3.3000000000000E+00  0.0000000000000E+00  0.0000000000000E+00
   332  3.3100000000000E+00  0.0000000000000E+00  0.0000000000000E+00
   333  3.3200000000000E+00  0.0000000000000E+00  0.0000000000000E+00
   334  3.3300000000000E+00  0.0000000000000E+00  0.0000000000000E+00
   335  3.3400000000000E+00  0.0000000000000E+00  0.0000000000000E+00
   336  3.3500000000000E+00  0.0000000000000E+00  0.0000000000000E+00
   337  3.3600000000000E+00  0.0000000000000E+00  0.0000000000000E+00
   338  3.3700000000000E+00  0.0000000000000E+00  0.0000000000000E+00
   339  3.3800000000000E+00  0.0000000000000E+00  0.0000000000000E+00
   340  3.3900000000000E+00  0.0000000000000E+00  0.0000000000000E+00
   341  3.4000000000000E+00  0.0000000000000E+00  0.0000000000000E+00
   342  3.4100000000000E+00  0.0000000000000E+00  0.0000000000000E+00
   343  3.4200000000000E+00  0.0000000000000E+00  0.0000000000000E+00
   344  3.4300000000000E+00  0.0000000000000E+00  0.0000000000000E+00
   345  3.4400000000000E+00  0.0000000000000E+00  0.0000000000000E+00
   346  3.4500000000000E+00  0.0000000000000E+00  0.0000000000000E+00
   347  3.4600000000000E+00  0.0000000000000E+00  0.0000000000000E+00
   348  3.4700000000000E+00  0.0000000000000E+00  0.0000000000000E+00
   349  3.4800000000000E+00  0.0000000000000E+00  0.0000000000000E+00
   350  3.4900000000000E+00  0.0000000000000E+00  0.0000000000000E+00
   351  3.5000000000000E+00  0.0000000000000E+00  0.0000000000000E+00
   352  3.5100000000000E+00  0.0000000000000E+00  0.0000000000000E+00
   353  3.5200000000000E+00  0.0000000000000E+00  0.0000000000000E+00
   354  3.5300000000000E+00  0.0000000000000E+00  0.0000000000000E+00
   355  3.5400000000000E+00  0.0000000000000E+00  0.0000000000000E+00
   356  3.5500000000000E+00  0.0000000000000E+00  0.0000000000000E+00
   357  3.5600000000000E+00  0.0000000000000E+00  0.0000000000000E+00
   358  3.5700000000000E+00  0.0000000000000E+00  0.0000000000000E+00
   359  3.5800000000000E+00  0.0000000000000E+00  0.0000000000000E+00
   360  3.5900000000000E+00  0.0000000000000E+00  0.0000000000000E+00
   361  3.6000000000000E+00  0.0000000000000E+00  0.0000000000000E+00
   362  3.6100000000000E+00  0.0000000000000E+00  0.0000000000000E+00
   363  3.6200000000000E+00  0.0000000000000E+00  0.0000000000000E+00
   364  3.6300000000000E+00  0.0000000000000E+00  0.0000000000000E+00
   365  3.6400000000000E+00  0.0000000000000E+00  0.0000000000000E+00
   366  3.6500000000000E+00  0.0000000000000E+00  0.0000000000000E+00
   367  3.6600000000000E+00  0.0000000000000E+00  0.0000000000000E+00
   368  3.6700000000000E+00  0.0000000000000E+00  0.0000000000000E+00
   369  3.6800000000000E+00  0.0000000000000E+00  0.0000000000000E+00
   370  3.6900000000000E+00  0.0000000000000E+00  0.0000000000000E+00
   371  3.7000000000000E+00  0.0000000000000E+00  0.0000000000000E+00
   372  3.7100000000000E+00  0.0000000000000E+00  0.0000000000000E+00
   373  3.7200000000000E+00  0.0000000000000E+00  0.0000000000000E+00
   374  3.7300000000000E+00  0.0000000000000E+00  0.0000000000000E+00
   375  3.7400000000000E+00  0.0000000000000E+00  0.0000000000000E+00
   376  3.7500000000000E+00  0.0000000000000E+00  0.0000000000000E+00
   377  3.7600000000000E+00  0.0000000000000E+00  0.0000000000000E+00
   378  3.7700000000000E+00  0.0000000000000E+00  0.0000000000000E+00
   379  3.7800000000000E+00  0.0000000000000E+00  0.0000000000000E+00
   380  3.7900000000000E+00  0.0000000000000E+00  0.0000000000000E+00
   381  3.8000000000000E+00  0.0000000000000E+00  0.0000000000000E+00
   382  3.8100000000000E+00  0.0000000000000E+00  0.0000000000000E+00
   383  3.8200000000000E+00  0.0000000000000E+00  0.0000000000000E+00
   384  3.8300000000000E+00  0.0000000000000E+00  0.0000000000000E+00
   385  3.8400000000000E+00  0.0000000000000E+00  0.0000000000000E+00
   386  3.8500000000000E+00  0.0000000000000E+00  0.0000000000000E+00
   387  3.8600000000000E+00  0.0000000000000E+00  0.0000000000000E+00
   388  3.8700000000000E+00  0.0000000000000E+00  0.0000000000000E+00
   389  3.8800000000000E+00  0.0000000000000E+00  0.0000000000000E+00
   390  3.8900000000000E+00  0.0000000000000E+00  0.0000000000000E+00
   391  3.9000000000000E+00  0.0000000000000E+00  0.0000000000000E+00
   392  3.9100000000000E+00  0.0000000000000E+00  0.0000000000000E+00
   393  3.9200000000000E+00  0.0000000000000E+00  0.0000000000000E+00
   394  3.9300000000000E+00  0.0000000000000E+00  0.0000000000000E+00
   395  3.9400000000000E+00  0.0000000000000E+00  0.0000000000000E+00
   396  3.9500000000000E+00  0.0000000000000E+00  0.0000000000000E+00
   397  3.9600000000000E+00  0.0000000000000E+00  0.0000000000000E+00
   398  3.9700000000000E+00  0.0000000000000E+00  0.0000000000000E+00
   399  3.9800000000000E+00  0.0000000000000E+00  0.0000000000000E+00
   400  3.9900000000000E+00  0.0000000000000E+00  0.0000000000000E+00
   401  4.0000000000000E+00  0.0000000000000E+00  0.0000000000000E+00
   402  4.0100000000000E+00  0.0000000000000E+00  0.0000000000000E+00
   403  4.0200000000000E+00  0.0000000000000E+00  0.0000000000000E+00
   404  4.0300000000000E+00  0.0000000000000E+00  0.0000000000000E+00
   405  4.0400000000000E+00  0.0000000000000E+00  0.0000000000000E+00
   406  4.0500000000000E+00  0.0000000000000E+00  0.0000000000000E+00
   407  4.0600000000000E+00  0.0000000000000E+00  0.0000000000000E+00
   408  4.0700000000000E+00  0.0000000000000E+00  0.0000000000000E+00
   409  4.0800000000000E+00  0.0000000000000E+00  0.0000000000000E+00
   410  4.0900000000000E+00  0.0000000000000E+00  0.0000000000000E+00
   411  4.1000000000000E+00  0.0000000000000E+00  0.0000000000000E+00
   412  4.1100000000000E+00  0.0000000000000E+00  0.0000000000000E+00
   413  4.1200000000000E+00  0.0000000000000E+00  0.0000000000000E+00
   414  4.1300000000000E+00  0.0000000000000E+00  0.0000000000000E+00
   415  4.1400000000000E+00  0.0000000000000E+00  0.0000000000000E+00
   416  4.1500000000000E+00  0.0000000000000E+00  0.0000000000000E+00
   417  4.1600000000000E+00  0.0000000000000E+00  0.0000000000000E+00
   418  4.1700000000000E+00  0.0000000000000E+00  0.0000000000000E+00
   419  4.1800000000000E+00  0.0000000000000E+00  0.0000000000000E+00
   420  4.1900000000000E+00  0.0000000000000E+00  0.0000000000000E+00
   421  4.2000000000000E+00  0.0000000000000E+00  0.0000000000000E+00
   422  4.2100000000000E+00  0.0000000000000E+00  0.0000000000000E+00
   423  4.2200000000000E+00  0.0000000000000E+00  0.0000000000000E+00