P   ONCVPSP-2.1.1   r_core=    2.58990 1.72641
    15.0000   5.0000   150415   zatom,zion,pspd
    8   11   1   4   600   0   pspcod,pspxc,lmax,lloc,mmax,r2well
    5.99000000   0.00000000   0.00000000   rchrg fchrg qchrg
    2   2   0   0   0   nproj
    1   1   extension_switch
       0                         8.8920967240000E+00  6.4421707340000E-01
     1  0.0000000000000E+00  0.0000000000000E+00  0.0000000000000E+00
     2  1.0000000000000E-02  3.3136563874000E-02  3.1729023367000E-02
     3  2.0000000000000E-02  6.6285297528000E-02  6.3427301620000E-02
     4  3.0000000000000E-02  9.9458084308000E-02  9.5063726671000E-02
     5  4.0000000000000E-02  1.3266623672000E-01  1.2660646861000E-01
     6  5.0000000000000E-02  1.6592021600000E-01  1.5802262504000E-01
     7  6.0000000000000E-02  1.9922935777000E-01  1.8927788272000E-01
     8  7.0000000000000E-02  2.3260160551000E-01  2.2033619525000E-01
     9  8.0000000000000E-02  2.6604325394000E-01  2.5115948084000E-01
    10  9.0000000000000E-02  2.9955870406000E-01  2.8170734361000E-01
    11  1.0000000000000E-01  3.3315023156000E-01  3.1193682204000E-01
    12  1.1000000000000E-01  3.6681777038000E-01  3.4180216763000E-01
    13  1.2000000000000E-01  4.0055871295000E-01  3.7125465705000E-01
    14  1.3000000000000E-01  4.3436772852000E-01  4.0024244021000E-01
    15  1.4000000000000E-01  4.6823660118000E-01  4.2871042702000E-01
    16  1.5000000000000E-01  5.0215408846000E-01  4.5660021473000E-01
    17  1.6000000000000E-01  5.3610580206000E-01  4.8385005789000E-01
    18  1.7000000000000E-01  5.7007411125000E-01  5.1039488226000E-01
    19  1.8000000000000E-01  6.0403807020000E-01  5.3616634390000E-01
    20  1.9000000000000E-01  6.3797336959000E-01  5.6109293420000E-01
    21  2.0000000000000E-01  6.7185231338000E-01  5.8510013107000E-01
    22  2.1000000000000E-01  7.0564382063000E-01  6.0811059670000E-01
    23  2.2000000000000E-01  7.3931345331000E-01  6.3004442095000E-01
    24  2.3000000000000E-01  7.7282346951000E-01  6.5081941014000E-01
    25  2.4000000000000E-01  8.0613290223000E-01  6.7035141916000E-01
    26  2.5000000000000E-01  8.3919766375000E-01  6.8855472798000E-01
    27  2.6000000000000E-01  8.7197067435000E-01  7.0534245486000E-01
    28  2.7000000000000E-01  9.0440201626000E-01  7.2062701309000E-01
    29  2.8000000000000E-01  9.3643911030000E-01  7.3432059837000E-01
    30  2.9000000000000E-01  9.6802691575000E-01  7.4633571165000E-01
    31  3.0000000000000E-01  9.9910815197000E-01  7.5658571070000E-01
    32  3.1000000000000E-01  1.0296235405000E+00  7.6498538754000E-01
    33  3.2000000000000E-01  1.0595120648000E+00  7.7145156398000E-01
    34  3.3000000000000E-01  1.0887112528000E+00  7.7590371655000E-01
    35  3.4000000000000E-01  1.1171574689000E+00  7.7826459821000E-01
    36  3.5000000000000E-01  1.1447862249000E+00  7.7846088041000E-01
    37  3.6000000000000E-01  1.1715325028000E+00  7.7642379593000E-01
    38  3.7000000000000E-01  1.1973310910000E+00  7.7208978565000E-01
    39  3.8000000000000E-01  1.2221169208000E+00  7.6540112146000E-01
    40  3.9000000000000E-01  1.2458254218000E+00  7.5630654388000E-01
    41  4.0000000000000E-01  1.2683928768000E+00  7.4476187143000E-01
    42  4.1000000000000E-01  1.2897567762000E+00  7.3073058075000E-01
    43  4.2000000000000E-01  1.3098561773000E+00  7.1418437205000E-01
    44  4.3000000000000E-01  1.3286320618000E+00  6.9510369968000E-01
    45  4.4000000000000E-01  1.3460276889000E+00  6.7347826636000E-01
    46  4.5000000000000E-01  1.3619889426000E+00  6.4930747619000E-01
    47  4.6000000000000E-01  1.3764646713000E+00  6.2260084185000E-01
    48  4.7000000000000E-01  1.3894070126000E+00  5.9337833581000E-01
    49  4.8000000000000E-01  1.4007717120000E+00  5.6167069646000E-01
    50  4.9000000000000E-01  1.4105184405000E+00  5.2751969319000E-01
    51  5.0000000000000E-01  1.4186110627000E+00  4.9097828111000E-01
    52  5.1000000000000E-01  1.4250178923000E+00  4.5211070602000E-01
    53  5.2000000000000E-01  1.4297119792000E+00  4.1099260301000E-01
    54  5.3000000000000E-01  1.4326713207000E+00  3.6771094876000E-01
    55  5.4000000000000E-01  1.4338790101000E+00  3.2236392052000E-01
    56  5.5000000000000E-01  1.4333235369000E+00  2.7506083813000E-01
    57  5.6000000000000E-01  1.4309987919000E+00  2.2592179298000E-01
    58  5.7000000000000E-01  1.4269043276000E+00  1.7507742849000E-01
    59  5.8000000000000E-01  1.4210453297000E+00  1.2266846934000E-01
    60  5.9000000000000E-01  1.4134328137000E+00  6.8845294343000E-02
    61  6.0000000000000E-01  1.4040835099000E+00  1.3767367096000E-02
    62  6.1000000000000E-01  1.3930200368000E+00 -4.2397406286000E-02
    63  6.2000000000000E-01  1.3802707328000E+00 -9.9473338650000E-02
    64  6.3000000000000E-01  1.3658696667000E+00 -1.5727774680000E-01
    65  6.4000000000000E-01  1.3498565634000E+00 -2.1562183896000E-01
    66  6.5000000000000E-01  1.3322766278000E+00 -2.7431150967000E-01
    67  6.6000000000000E-01  1.3131804317000E+00 -3.3314835550000E-01
    68  6.7000000000000E-01  1.2926237394000E+00 -3.9193078941000E-01
    69  6.8000000000000E-01  1.2706672643000E+00 -4.5045496597000E-01
    70  6.9000000000000E-01  1.2473764436000E+00 -5.0851586914000E-01
    71  7.0000000000000E-01  1.2228211734000E+00 -5.6590861022000E-01
    72  7.1000000000000E-01  1.1970754999000E+00 -6.2242962427000E-01
    73  7.2000000000000E-01  1.1702173008000E+00 -6.7787774872000E-01
    74  7.3000000000000E-01  1.1423279400000E+00 -7.3205551181000E-01
    75  7.4000000000000E-01  1.1134918980000E+00 -7.8477037922000E-01
    76  7.5000000000000E-01  1.0837964047000E+00 -8.3583587201000E-01
    77  7.6000000000000E-01  1.0533309696000E+00 -8.8507319003000E-01
    78  7.7000000000000E-01  1.0221870016000E+00 -9.3231212056000E-01
    79  7.8000000000000E-01  9.9045736355000E-01 -9.7739230063000E-01
    80  7.9000000000000E-01  9.5823591705000E-01 -1.0201644162000E+00
    81  8.0000000000000E-01  9.2561706063000E-01 -1.0604913391000E+00
    82  8.1000000000000E-01  8.9269526128000E-01 -1.0982492129000E+00
    83  8.2000000000000E-01  8.5956458174000E-01 -1.1333284789000E+00
    84  8.3000000000000E-01  8.2631820647000E-01 -1.1656348313000E+00
    85  8.4000000000000E-01  7.9304796904000E-01 -1.1950900926000E+00
    86  8.5000000000000E-01  7.5984388416000E-01 -1.2216329984000E+00
    87  8.6000000000000E-01  7.2679368691000E-01 -1.2452198820000E+00
    88  8.7000000000000E-01  6.9398238262000E-01 -1.2658252491000E+00
    89  8.8000000000000E-01  6.6149181019000E-01 -1.2834422318000E+00
    90  8.9000000000000E-01  6.2940022210000E-01 -1.2980829124000E+00
    91  9.0000000000000E-01  5.9778188425000E-01 -1.3097785071000E+00
    92  9.1000000000000E-01  5.6670669871000E-01 -1.3185793999000E+00
    93  9.2000000000000E-01  5.3623985271000E-01 -1.3245550167000E+00
    94  9.3000000000000E-01  5.0644149685000E-01 -1.3277935316000E+00
    95  9.4000000000000E-01  4.7736645579000E-01 -1.3284013952000E+00
    96  9.5000000000000E-01  4.4906409296000E-01 -1.3265025407000E+00
    97  9.6000000000000E-01  4.2157780603000E-01 -1.3222379628000E+00
    98  9.7000000000000E-01  3.9494499064000E-01 -1.3157643685000E+00
    99  9.8000000000000E-01  3.6919698468000E-01 -1.3072528461000E+00
   100  9.9000000000000E-01  3.4435892868000E-01 -1.2968874589000E+00
   101  1.0000000000000E+00  3.2044973074000E-01 -1.2848635406000E+00
   102  1.0100000000000E+00  2.9748208289000E-01 -1.2713857688000E+00
   103  1.0200000000000E+00  2.7546270054000E-01 -1.2566663291000E+00
   104  1.0300000000000E+00  2.5439196147000E-01 -1.2409221101000E+00
   105  1.0400000000000E+00  2.3426437800000E-01 -1.2243718290000E+00
   106  1.0500000000000E+00  2.1506895144000E-01 -1.2072334493000E+00
   107  1.0600000000000E+00  1.9678938713000E-01 -1.1897209658000E+00
   108  1.0700000000000E+00  1.7940453028000E-01 -1.1720420816000E+00
   109  1.0800000000000E+00  1.6288851650000E-01 -1.1543932177000E+00
   110  1.0900000000000E+00  1.4721142658000E-01 -1.1369542421000E+00
   111  1.1000000000000E+00  1.3234005468000E-01 -1.1198874088000E+00
   112  1.1100000000000E+00  1.1823788131000E-01 -1.1033225395000E+00
   113  1.1200000000000E+00  1.0486469412000E-01 -1.0873431900000E+00
   114  1.1300000000000E+00  9.2177987191000E-02 -1.0719424699000E+00
   115  1.1400000000000E+00  8.0135964163000E-02 -1.0570601811000E+00
   116  1.1500000000000E+00  6.8698782857000E-02 -1.0425870761000E+00
   117  1.1600000000000E+00  5.7829993321000E-02 -1.0283735059000E+00
   118  1.1700000000000E+00  4.7500113824000E-02 -1.0142495029000E+00
   119  1.1800000000000E+00  3.7684066695000E-02 -1.0000459186000E+00
   120  1.1900000000000E+00  2.8361130860000E-02 -9.8559660815000E-01
   121  1.2000000000000E+00  1.9516723810000E-02 -9.7075907516000E-01
   122  1.2100000000000E+00  1.1139704723000E-02 -9.5542056771000E-01
   123  1.2200000000000E+00  3.2210799306000E-03 -9.3949158637000E-01
   124  1.2300000000000E+00 -4.2458087160000E-03 -9.2291444636000E-01
   125  1.2400000000000E+00 -1.1266512162000E-02 -9.0566819638000E-01
   126  1.2500000000000E+00 -1.7846709792000E-02 -8.8774998553000E-01
   127  1.2600000000000E+00 -2.3992109351000E-02 -8.6917981851000E-01
   128  1.2700000000000E+00 -2.9709257986000E-02 -8.5000150526000E-01
   129  1.2800000000000E+00 -3.5005577694000E-02 -8.3026662751000E-01
   130  1.2900000000000E+00 -3.9889443867000E-02 -8.1003865403000E-01
   131  1.3000000000000E+00 -4.4370501696000E-02 -7.8938811783000E-01
   132  1.3100000000000E+00 -4.8459213724000E-02 -7.6838759315000E-01
   133  1.3200000000000E+00 -5.2167072103000E-02 -7.4711234113000E-01
   134  1.3300000000000E+00 -5.5506343703000E-02 -7.2563485880000E-01
   135  1.3400000000000E+00 -5.8489969363000E-02 -7.0402799703000E-01
   136  1.3500000000000E+00 -6.1131451402000E-02 -6.8235983230000E-01
   137  1.3600000000000E+00 -6.3444560704000E-02 -6.6069396661000E-01
   138  1.3700000000000E+00 -6.5443695942000E-02 -6.3909387915000E-01
   139  1.3800000000000E+00 -6.7142958231000E-02 -6.1761271132000E-01
   140  1.3900000000000E+00 -6.8556848272000E-02 -5.9630331928000E-01
   141  1.4000000000000E+00 -6.9699842278000E-02 -5.7521303184000E-01
   142  1.4100000000000E+00 -7.0585976533000E-02 -5.5438260575000E-01
   143  1.4200000000000E+00 -7.1229821031000E-02 -5.3385294104000E-01
   144  1.4300000000000E+00 -7.1644900687000E-02 -5.1365540108000E-01
   145  1.4400000000000E+00 -7.1845097264000E-02 -4.9382132797000E-01
   146  1.4500000000000E+00 -7.1843802839000E-02 -4.7437680911000E-01
   147  1.4600000000000E+00 -7.1653838923000E-02 -4.5534367698000E-01
   148  1.4700000000000E+00 -7.1288364943000E-02 -4.3674306954000E-01
   149  1.4800000000000E+00 -7.0759176195000E-02 -4.1858924575000E-01
   150  1.4900000000000E+00 -7.0078725064000E-02 -4.0089739199000E-01
   151  1.5000000000000E+00 -6.9258186276000E-02 -3.8367692469000E-01
   152  1.5100000000000E+00 -6.8308922643000E-02 -3.6693682134000E-01
   153  1.5200000000000E+00 -6.7241658763000E-02 -3.5068286305000E-01
   154  1.5300000000000E+00 -6.6066600497000E-02 -3.3491870274000E-01
   155  1.5400000000000E+00 -6.4793979882000E-02 -3.1964681785000E-01
   156  1.5500000000000E+00 -6.3432893637000E-02 -3.0486660462000E-01
   157  1.5600000000000E+00 -6.1993029640000E-02 -2.9057752585000E-01
   158  1.5700000000000E+00 -6.0482499564000E-02 -2.7677572068000E-01
   159  1.5800000000000E+00 -5.8910253572000E-02 -2.6345774947000E-01
   160  1.5900000000000E+00 -5.7283674643000E-02 -2.5061745524000E-01
   161  1.6000000000000E+00 -5.5610812647000E-02 -2.3824878242000E-01
   162  1.6100000000000E+00 -5.3898462341000E-02 -2.2634383337000E-01
   163  1.6200000000000E+00 -5.2153787422000E-02 -2.1489446545000E-01
   164  1.6300000000000E+00 -5.0382990806000E-02 -2.0389134643000E-01
   165  1.6400000000000E+00 -4.8592419684000E-02 -1.9332476721000E-01
   166  1.6500000000000E+00 -4.6787681590000E-02 -1.8318425833000E-01
   167  1.6600000000000E+00 -4.4974380025000E-02 -1.7345898267000E-01
   168  1.6700000000000E+00 -4.3157526551000E-02 -1.6413762890000E-01
   169  1.6800000000000E+00 -4.1342053254000E-02 -1.5520859365000E-01
   170  1.6900000000000E+00 -3.9532379627000E-02 -1.4666001901000E-01
   171  1.7000000000000E+00 -3.7732835785000E-02 -1.3847982713000E-01
   172  1.7100000000000E+00 -3.5947258303000E-02 -1.3065590779000E-01
   173  1.7200000000000E+00 -3.4179440434000E-02 -1.2317593733000E-01
   174  1.7300000000000E+00 -3.2432650592000E-02 -1.1602784347000E-01
   175  1.7400000000000E+00 -3.0710204753000E-02 -1.0919922922000E-01
   176  1.7500000000000E+00 -2.9014823794000E-02 -1.0267834158000E-01
   177  1.7600000000000E+00 -2.7349399371000E-02 -9.6452834445000E-02
   178  1.7700000000000E+00 -2.5716131558000E-02 -9.0511538737000E-02
   179  1.7800000000000E+00 -2.4117532952000E-02 -8.4842245620000E-02
   180  1.7900000000000E+00 -2.2555315903000E-02 -7.9434606587000E-02
   181  1.8000000000000E+00 -2.1031650534000E-02 -7.4276612305000E-02
   182  1.8100000000000E+00 -1.9547824805000E-02 -6.9358836891000E-02
   183  1.8200000000000E+00 -1.8105622147000E-02 -6.4669800805000E-02
   184  1.8300000000000E+00 -1.6706042781000E-02 -6.0200742453000E-02
   185  1.8400000000000E+00 -1.5350418891000E-02 -5.5941220548000E-02
   186  1.8500000000000E+00 -1.4039565335000E-02 -5.1882822242000E-02
   187  1.8600000000000E+00 -1.2774373981000E-02 -4.8016421677000E-02
   188  1.8700000000000E+00 -1.1555497217000E-02 -4.4333862759000E-02
   189  1.8800000000000E+00 -1.0383426770000E-02 -4.0827471254000E-02
   190  1.8900000000000E+00 -9.2586644946000E-03 -3.7489283262000E-02
   191  1.9000000000000E+00 -8.1813482998000E-03 -3.4313118896000E-02
   192  1.9100000000000E+00 -7.1518307674000E-03 -3.1291200065000E-02
   193  1.9200000000000E+00 -6.1699797421000E-03 -2.8418540484000E-02
   194  1.9300000000000E+00 -5.2358938325000E-03 -2.5688301320000E-02
   195  1.9400000000000E+00 -4.3493230280000E-03 -2.3095768075000E-02
   196  1.9500000000000E+00 -3.5100629076000E-03 -2.0635552018000E-02
   197  1.9600000000000E+00 -2.7177878662000E-03 -1.8302865172000E-02
   198  1.9700000000000E+00 -1.9720171266000E-03 -1.6093752216000E-02
   199  1.9800000000000E+00 -1.2723402581000E-03 -1.4003379422000E-02
   200  1.9900000000000E+00 -6.1806596022000E-04 -1.2028813899000E-02
   201  2.0000000000000E+00 -8.6224840873000E-06 -1.0165804497000E-02
   202  2.0100000000000E+00  5.5678016326000E-04 -8.4115529868000E-03
   203  2.0200000000000E+00  1.0789284377000E-03 -6.7628770089000E-03
   204  2.0300000000000E+00  1.5586665000000E-03 -5.2167234267000E-03
   205  2.0400000000000E+00  1.9969734261000E-03 -3.7708121432000E-03
   206  2.0500000000000E+00  2.3947700271000E-03 -2.4220257700000E-03
   207  2.0600000000000E+00  2.7531620622000E-03 -1.1684229584000E-03
   208  2.0700000000000E+00  3.0732236036000E-03 -7.4535981089000E-06
   209  2.0800000000000E+00  3.3561058013000E-03  1.0631575628000E-03
   210  2.0900000000000E+00  3.6030285817000E-03  2.0454773099000E-03
   211  2.1000000000000E+00  3.8152112767000E-03  2.9419207221000E-03
   212  2.1100000000000E+00  3.9939679808000E-03  3.7544885412000E-03
   213  2.1200000000000E+00  4.1406247285000E-03  4.4854415943000E-03
   214  2.1300000000000E+00  4.2565486149000E-03  5.1370281582000E-03
   215  2.1400000000000E+00  4.3431461618000E-03  5.7115052840000E-03
   216  2.1500000000000E+00  4.4018681995000E-03  6.2112030243000E-03
   217  2.1600000000000E+00  4.4341616543000E-03  6.6385911605000E-03
   218  2.1700000000000E+00  4.4415368572000E-03  6.9961395367000E-03
   219  2.1800000000000E+00  4.4255109697000E-03  7.2864535664000E-03
   220  2.1900000000000E+00  4.3875906721000E-03  7.5123179698000E-03
   221  2.2000000000000E+00  4.3293872864000E-03  7.6764349841000E-03
   222  2.2100000000000E+00  4.2524070921000E-03  7.7818450910000E-03
   223  2.2200000000000E+00  4.1582294025000E-03  7.8315953229000E-03
   224  2.2300000000000E+00  4.0484884972000E-03  7.8287678289000E-03
   225  2.2400000000000E+00  3.9246633409000E-03  7.7767402786000E-03
   226  2.2500000000000E+00  3.7884057023000E-03  7.6788455307000E-03
   227  2.2600000000000E+00  3.6412533336000E-03  7.5385531692000E-03
   228  2.2700000000000E+00  3.4846749159000E-03  7.3594492981000E-03
   229  2.2800000000000E+00  3.3203644084000E-03  7.1452004305000E-03
   230  2.2900000000000E+00  3.1496728766000E-03  6.8994523917000E-03
   231  2.3000000000000E+00  2.9740718150000E-03  6.6259646986000E-03
   232  2.3100000000000E+00  2.7951778607000E-03  6.3286569054000E-03
   233  2.3200000000000E+00  2.6141587503000E-03  6.0111032940000E-03
   234  2.3300000000000E+00  2.4324789176000E-03  5.6772418012000E-03
   235  2.3400000000000E+00  2.2515109446000E-03  5.3309150232000E-03
   236  2.3500000000000E+00  2.0722887254000E-03  4.9755185738000E-03
   237  2.3600000000000E+00  1.8962098286000E-03  4.6150884084000E-03
   238  2.3700000000000E+00  1.7243190022000E-03  4.2530163398000E-03
   239  2.3800000000000E+00  1.5574859493000E-03  3.8923877414000E-03
   240  2.3900000000000E+00  1.3969972114000E-03  3.5372123302000E-03
   241  2.4000000000000E+00  1.2434998707000E-03  3.1900516466000E-03
   242  2.4100000000000E+00  1.0976643920000E-03  2.8535407878000E-03
   243  2.4200000000000E+00  9.6061672784000E-04  2.5315003731000E-03
   244  2.4300000000000E+00  8.3255312965000E-04  2.2253173622000E-03
   245  2.4400000000000E+00  7.1390585645000E-04  1.9370175180000E-03
   246  2.4500000000000E+00  6.0557624146000E-04  1.6699944711000E-03
   247  2.4600000000000E+00  5.0728561118000E-04  1.4242218559000E-03
   248  2.4700000000000E+00  4.1921558119000E-04  1.2010367829000E-03
   249  2.4800000000000E+00  3.4187954435000E-04  1.0028310325000E-03
   250  2.4900000000000E+00  2.7461894886000E-04  8.2833698907000E-04
   251  2.5000000000000E+00  2.1726675427000E-04  6.7785370061000E-04
   252  2.5100000000000E+00  1.6993532745000E-04  5.5262079486000E-04
   253  2.5200000000000E+00  1.3155301088000E-04  4.4997368968000E-04
   254  2.5300000000000E+00  1.0155159622000E-04  3.6893885831000E-04
   255  2.5400000000000E+00  7.9646799727000E-05  3.0953684896000E-04
   256  2.5500000000000E+00  6.4326720064000E-05  2.6758123161000E-04
   257  2.5600000000000E+00  5.4735615709000E-05  2.4143284899000E-04
   258  2.5700000000000E+00  5.1609328719000E-05  2.3705409976000E-04
   259  2.5800000000000E+00  5.0065040522000E-05  2.3375567297000E-04
   260  2.5900000000000E+00  4.7204877565000E-05  2.2035672062000E-04
   261  2.6000000000000E+00  3.2224363117000E-05  1.5138642464000E-04
   262  2.6100000000000E+00  1.5940720021000E-05  7.5229028489000E-05
   263  2.6200000000000E+00  1.2406423585000E-06  5.8749748935000E-06
   264  2.6300000000000E+00 -2.8788203347000E-06 -1.3437543639000E-05
   265  2.6400000000000E+00 -2.7536076717000E-06 -1.2853085275000E-05
   266  2.6500000000000E+00 -6.3765908723000E-07 -2.9764177043000E-06
   267  2.6600000000000E+00  0.0000000000000E+00  0.0000000000000E+00
   268  2.6700000000000E+00  0.0000000000000E+00  0.0000000000000E+00
   269  2.6800000000000E+00  0.0000000000000E+00  0.0000000000000E+00
   270  2.6900000000000E+00  0.0000000000000E+00  0.0000000000000E+00
   271  2.7000000000000E+00  0.0000000000000E+00  0.0000000000000E+00
   272  2.7100000000000E+00  0.0000000000000E+00  0.0000000000000E+00
   273  2.7200000000000E+00  0.0000000000000E+00  0.0000000000000E+00
   274  2.7300000000000E+00  0.0000000000000E+00  0.0000000000000E+00
   275  2.7400000000000E+00  0.0000000000000E+00  0.0000000000000E+00
   276  2.7500000000000E+00  0.0000000000000E+00  0.0000000000000E+00
   277  2.7600000000000E+00  0.0000000000000E+00  0.0000000000000E+00
   278  2.7700000000000E+00  0.0000000000000E+00  0.0000000000000E+00
   279  2.7800000000000E+00  0.0000000000000E+00  0.0000000000000E+00
   280  2.7900000000000E+00  0.0000000000000E+00  0.0000000000000E+00
   281  2.8000000000000E+00  0.0000000000000E+00  0.0000000000000E+00
   282  2.8100000000000E+00  0.0000000000000E+00  0.0000000000000E+00
   283  2.8200000000000E+00  0.0000000000000E+00  0.0000000000000E+00
   284  2.8300000000000E+00  0.0000000000000E+00  0.0000000000000E+00
   285  2.8400000000000E+00  0.0000000000000E+00  0.0000000000000E+00
   286  2.8500000000000E+00  0.0000000000000E+00  0.0000000000000E+00
   287  2.8600000000000E+00  0.0000000000000E+00  0.0000000000000E+00
   288  2.8700000000000E+00  0.0000000000000E+00  0.0000000000000E+00
   289  2.8800000000000E+00  0.0000000000000E+00  0.0000000000000E+00
   290  2.8900000000000E+00  0.0000000000000E+00  0.0000000000000E+00
   291  2.9000000000000E+00  0.0000000000000E+00  0.0000000000000E+00
   292  2.9100000000000E+00  0.0000000000000E+00  0.0000000000000E+00
   293  2.9200000000000E+00  0.0000000000000E+00  0.0000000000000E+00
   294  2.9300000000000E+00  0.0000000000000E+00  0.0000000000000E+00
   295  2.9400000000000E+00  0.0000000000000E+00  0.0000000000000E+00
   296  2.9500000000000E+00  0.0000000000000E+00  0.0000000000000E+00
   297  2.9600000000000E+00  0.0000000000000E+00  0.0000000000000E+00
   298  2.9700000000000E+00  0.0000000000000E+00  0.0000000000000E+00
   299  2.9800000000000E+00  0.0000000000000E+00  0.0000000000000E+00
   300  2.9900000000000E+00  0.0000000000000E+00  0.0000000000000E+00
   301  3.0000000000000E+00  0.0000000000000E+00  0.0000000000000E+00
   302  3.0100000000000E+00  0.0000000000000E+00  0.0000000000000E+00
   303  3.0200000000000E+00  0.0000000000000E+00  0.0000000000000E+00
   304  3.0300000000000E+00  0.0000000000000E+00  0.0000000000000E+00
   305  3.0400000000000E+00  0.0000000000000E+00  0.0000000000000E+00
   306  3.0500000000000E+00  0.0000000000000E+00  0.0000000000000E+00
   307  3.0600000000000E+00  0.0000000000000E+00  0.0000000000000E+00
   308  3.0700000000000E+00  0.0000000000000E+00  0.0000000000000E+00
   309  3.0800000000000E+00  0.0000000000000E+00  0.0000000000000E+00
   310  3.0900000000000E+00  0.0000000000000E+00  0.0000000000000E+00
   311  3.1000000000000E+00  0.0000000000000E+00  0.0000000000000E+00
   312  3.1100000000000E+00  0.0000000000000E+00  0.0000000000000E+00
   313  3.1200000000000E+00  0.0000000000000E+00  0.0000000000000E+00
   314  3.1300000000000E+00  0.0000000000000E+00  0.0000000000000E+00
   315  3.1400000000000E+00  0.0000000000000E+00  0.0000000000000E+00
   316  3.1500000000000E+00  0.0000000000000E+00  0.0000000000000E+00
   317  3.1600000000000E+00  0.0000000000000E+00  0.0000000000000E+00
   318  3.1700000000000E+00  0.0000000000000E+00  0.0000000000000E+00
   319  3.1800000000000E+00  0.0000000000000E+00  0.0000000000000E+00
   320  3.1900000000000E+00  0.0000000000000E+00  0.0000000000000E+00
   321  3.2000000000000E+00  0.0000000000000E+00  0.0000000000000E+00
   322  3.2100000000000E+00  0.0000000000000E+00  0.0000000000000E+00
   323  3.2200000000000E+00  0.0000000000000E+00  0.0000000000000E+00
   324  3.2300000000000E+00  0.0000000000000E+00  0.0000000000000E+00
   325  3.2400000000000E+00  0.0000000000000E+00  0.0000000000000E+00
   326  3.2500000000000E+00  0.0000000000000E+00  0.0000000000000E+00
   327  3.2600000000000E+00  0.0000000000000E+00  0.0000000000000E+00
   328  3.2700000000000E+00  0.0000000000000E+00  0.0000000000000E+00
   329  3.2800000000000E+00  0.0000000000000E+00  0.0000000000000E+00
   330  3.2900000000000E+00  0.0000000000000E+00  0.0000000000000E+00
   331  3.3000000000000E+00  0.0000000000000E+00  0.0000000000000E+00
   332  3.3100000000000E+00  0.0000000000000E+00  0.0000000000000E+00
   333  3.3200000000000E+00  0.0000000000000E+00  0.0000000000000E+00
   334  3.3300000000000E+00  0.0000000000000E+00  0.0000000000000E+00
   335  3.3400000000000E+00  0.0000000000000E+00  0.0000000000000E+00
   336  3.3500000000000E+00  0.0000000000000E+00  0.0000000000000E+00
   337  3.3600000000000E+00  0.0000000000000E+00  0.0000000000000E+00
   338  3.3700000000000E+00  0.0000000000000E+00  0.0000000000000E+00
   339  3.3800000000000E+00  0.0000000000000E+00  0.0000000000000E+00
   340  3.3900000000000E+00  0.0000000000000E+00  0.0000000000000E+00
   341  3.4000000000000E+00  0.0000000000000E+00  0.0000000000000E+00
   342  3.4100000000000E+00  0.0000000000000E+00  0.0000000000000E+00
   343  3.4200000000000E+00  0.0000000000000E+00  0.0000000000000E+00
   344  3.4300000000000E+00  0.0000000000000E+00  0.0000000000000E+00
   345  3.4400000000000E+00  0.0000000000000E+00  0.0000000000000E+00
   346  3.4500000000000E+00  0.0000000000000E+00  0.0000000000000E+00
   347  3.4600000000000E+00  0.0000000000000E+00  0.0000000000000E+00
   348  3.4700000000000E+00  0.0000000000000E+00  0.0000000000000E+00
   349  3.4800000000000E+00  0.0000000000000E+00  0.0000000000000E+00
   350  3.4900000000000E+00  0.0000000000000E+00  0.0000000000000E+00
   351  3.5000000000000E+00  0.0000000000000E+00  0.0000000000000E+00
   352  3.5100000000000E+00  0.0000000000000E+00  0.0000000000000E+00
   353  3.5200000000000E+00  0.0000000000000E+00  0.0000000000000E+00
   354  3.5300000000000E+00  0.0000000000000E+00  0.0000000000000E+00
   355  3.5400000000000E+00  0.0000000000000E+00  0.0000000000000E+00
   356  3.5500000000000E+00  0.0000000000000E+00  0.0000000000000E+00
   357  3.5600000000000E+00  0.0000000000000E+00  0.0000000000000E+00
   358  3.5700000000000E+00  0.0000000000000E+00  0.0000000000000E+00
   359  3.5800000000000E+00  0.0000000000000E+00  0.0000000000000E+00
   360  3.5900000000000E+00  0.0000000000000E+00  0.0000000000000E+00
   361  3.6000000000000E+00  0.0000000000000E+00  0.0000000000000E+00
   362  3.6100000000000E+00  0.0000000000000E+00  0.0000000000000E+00
   363  3.6200000000000E+00  0.0000000000000E+00  0.0000000000000E+00
   364  3.6300000000000E+00  0.0000000000000E+00  0.0000000000000E+00
   365  3.6400000000000E+00  0.0000000000000E+00  0.0000000000000E+00
   366  3.6500000000000E+00  0.0000000000000E+00  0.0000000000000E+00
   367  3.6600000000000E+00  0.0000000000000E+00  0.0000000000000E+00
   368  3.6700000000000E+00  0.0000000000000E+00  0.0000000000000E+00
   369  3.6800000000000E+00  0.0000000000000E+00  0.0000000000000E+00
   370  3.6900000000000E+00  0.0000000000000E+00  0.0000000000000E+00
   371  3.7000000000000E+00  0.0000000000000E+00  0.0000000000000E+00
   372  3.7100000000000E+00  0.0000000000000E+00  0.0000000000000E+00
   373  3.7200000000000E+00  0.0000000000000E+00  0.0000000000000E+00
   374  3.7300000000000E+00  0.0000000000000E+00  0.0000000000000E+00
   375  3.7400000000000E+00  0.0000000000000E+00  0.0000000000000E+00
   376  3.7500000000000E+00  0.0000000000000E+00  0.0000000000000E+00
   377  3.7600000000000E+00  0.0000000000000E+00  0.0000000000000E+00
   378  3.7700000000000E+00  0.0000000000000E+00  0.0000000000000E+00
   379  3.7800000000000E+00  0.0000000000000E+00  0.0000000000000E+00
   380  3.7900000000000E+00  0.0000000000000E+00  0.0000000000000E+00
   381  3.8000000000000E+00  0.0000000000000E+00  0.0000000000000E+00
   382  3.8100000000000E+00  0.0000000000000E+00  0.0000000000000E+00
   383  3.8200000000000E+00  0.0000000000000E+00  0.0000000000000E+00
   384  3.8300000000000E+00  0.0000000000000E+00  0.0000000000000E+00
   385  3.8400000000000E+00  0.0000000000000E+00  0.0000000000000E+00
   386  3.8500000000000E+00  0.0000000000000E+00  0.0000000000000E+00
   387  3.8600000000000E+00  0.0000000000000E+00  0.0000000000000E+00
   388  3.8700000000000E+00  0.0000000000000E+00  0.0000000000000E+00
   389  3.8800000000000E+00  0.0000000000000E+00  0.0000000000000E+00
   390  3.8900000000000E+00  0.0000000000000E+00  0.0000000000000E+00
   391  3.9000000000000E+00  0.0000000000000E+00  0.0000000000000E+00
   392  3.9100000000000E+00  0.0000000000000E+00  0.0000000000000E+00
   393  3.9200000000000E+00  0.0000000000000E+00  0.0000000000000E+00
   394  3.9300000000000E+00  0.0000000000000E+00  0.0000000000000E+00
   395  3.9400000000000E+00  0.0000000000000E+00  0.0000000000000E+00
   396  3.9500000000000E+00  0.0000000000000E+00  0.0000000000000E+00
   397  3.9600000000000E+00  0.0000000000000E+00  0.0000000000000E+00
   398  3.9700000000000E+00  0.0000000000000E+00  0.0000000000000E+00
   399  3.9800000000000E+00  0.0000000000000E+00  0.0000000000000E+00
   400  3.9900000000000E+00  0.0000000000000E+00  0.0000000000000E+00
   401  4.0000000000000E+00  0.0000000000000E+00  0.0000000000000E+00
   402  4.0100000000000E+00  0.0000000000000E+00  0.0000000000000E+00
   403  4.0200000000000E+00  0.0000000000000E+00  0.0000000000000E+00
   404  4.0300000000000E+00  0.0000000000000E+00  0.0000000000000E+00
   405  4.0400000000000E+00  0.0000000000000E+00  0.0000000000000E+00
   406  4.0500000000000E+00  0.0000000000000E+00  0.0000000000000E+00
   407  4.0600000000000E+00  0.0000000000000E+00  0.0000000000000E+00
   408  4.0700000000000E+00  0.0000000000000E+00  0.0000000000000E+00
   409  4.0800000000000E+00  0.0000000000000E+00  0.0000000000000E+00
   410  4.0900000000000E+00  0.0000000000000E+00  0.0000000000000E+00
   411  4.1000000000000E+00  0.0000000000000E+00  0.0000000000000E+00
   412  4.1100000000000E+00  0.0000000000000E+00  0.0000000000000E+00
   413  4.1200000000000E+00  0.0000000000000E+00  0.0000000000000E+00
   414  4.1300000000000E+00  0.0000000000000E+00  0.0000000000000E+00
   415  4.1400000000000E+00  0.0000000000000E+00  0.0000000000000E+00
   416  4.1500000000000E+00  0.0000000000000E+00  0.0000000000000E+00
   417  4.1600000000000E+00  0.0000000000000E+00  0.0000000000000E+00
   418  4.1700000000000E+00  0.0000000000000E+00  0.0000000000000E+00
   419  4.1800000000000E+00  0.0000000000000E+00  0.0000000000000E+00
   420  4.1900000000000E+00  0.0000000000000E+00  0.0000000000000E+00
   421  4.2000000000000E+00  0.0000000000000E+00  0.0000000000000E+00
   422  4.2100000000000E+00  0.0000000000000E+00  0.0000000000000E+00
   423  4.2200000000000E+00  0.0000000000000E+00  0.0000000000000E+00