S   ONCVPSP-2.1.1   r_core=    2.12945 1.52480
    16.0000   6.0000   150415   zatom,zion,pspd
    8   11   1   4   600   0   pspcod,pspxc,lmax,lloc,mmax,r2well
    5.99000000   0.00000000   0.00000000   rchrg fchrg qchrg
    2   2   0   0   0   nproj
    1   1   extension_switch
       0                         1.0350574291500E+01  6.7488281870000E-01
     1  0.0000000000000E+00  0.0000000000000E+00  0.0000000000000E+00
     2  1.0000000000000E-02  3.7719018776000E-02  2.9183509866000E-02
     3  2.0000000000000E-02  7.5448052507000E-02  5.8333833831000E-02
     4  3.0000000000000E-02  1.1319673507000E-01  8.7417366159000E-02
     5  4.0000000000000E-02  1.5097394124000E-01  1.1639966675000E-01
     6  5.0000000000000E-02  1.8878741477000E-01  1.4524505714000E-01
     7  6.0000000000000E-02  2.2664340554000E-01  1.7391623226000E-01
     8  7.0000000000000E-02  2.6454631872000E-01  2.0237389290000E-01
     9  8.0000000000000E-02  3.0249837884000E-01  2.3057640385000E-01
    10  9.0000000000000E-02  3.4049931146000E-01  2.5847948226000E-01
    11  1.0000000000000E-01  3.7854604514000E-01  2.8603592078000E-01
    12  1.1000000000000E-01  4.1663243608000E-01  3.1319534942000E-01
    13  1.2000000000000E-01  4.5474901803000E-01  3.3990404006000E-01
    14  1.3000000000000E-01  4.9288277933000E-01  3.6610475700000E-01
    15  1.4000000000000E-01  5.3101696934000E-01  3.9173665657000E-01
    16  1.5000000000000E-01  5.6913093595000E-01  4.1673523853000E-01
    17  1.6000000000000E-01  6.0719999561000E-01  4.4103235125000E-01
    18  1.7000000000000E-01  6.4519533766000E-01  4.6455625267000E-01
    19  1.8000000000000E-01  6.8308396351000E-01  4.8723172794000E-01
    20  1.9000000000000E-01  7.2082866207000E-01  5.0898026475000E-01
    21  2.0000000000000E-01  7.5838802175000E-01  5.2972028643000E-01
    22  2.1000000000000E-01  7.9571647964000E-01  5.4936744238000E-01
    23  2.2000000000000E-01  8.3276440770000E-01  5.6783495513000E-01
    24  2.3000000000000E-01  8.6947823616000E-01  5.8503402272000E-01
    25  2.4000000000000E-01  9.0580061354000E-01  6.0087427438000E-01
    26  2.5000000000000E-01  9.4167060225000E-01  6.1526427536000E-01
    27  2.6000000000000E-01  9.7702391038000E-01  6.2811208380000E-01
    28  2.7000000000000E-01  1.0117931558000E+00  6.3932584611000E-01
    29  2.8000000000000E-01  1.0459081639000E+00  6.4881443644000E-01
    30  2.9000000000000E-01  1.0792962955000E+00  6.5648813098000E-01
    31  3.0000000000000E-01  1.1118828041000E+00  6.6225931304000E-01
    32  3.1000000000000E-01  1.1435912196000E+00  6.6604320387000E-01
    33  3.2000000000000E-01  1.1743437572000E+00  6.6775861323000E-01
    34  3.3000000000000E-01  1.2040617437000E+00  6.6732869713000E-01
    35  3.4000000000000E-01  1.2326660734000E+00  6.6468174107000E-01
    36  3.5000000000000E-01  1.2600776658000E+00  6.5975191712000E-01
    37  3.6000000000000E-01  1.2862179530000E+00  6.5248006498000E-01
    38  3.7000000000000E-01  1.3110093537000E+00  6.4281441717000E-01
    39  3.8000000000000E-01  1.3343757889000E+00  6.3071136560000E-01
    40  3.9000000000000E-01  1.3562431647000E+00  6.1613613628000E-01
    41  4.0000000000000E-01  1.3765398755000E+00  5.9906346370000E-01
    42  4.1000000000000E-01  1.3951972986000E+00  5.7947821598000E-01
    43  4.2000000000000E-01  1.4121502832000E+00  5.5737596921000E-01
    44  4.3000000000000E-01  1.4273376265000E+00  5.3276352452000E-01
    45  4.4000000000000E-01  1.4407025372000E+00  5.0565936129000E-01
    46  4.5000000000000E-01  1.4521930806000E+00  4.7609401991000E-01
    47  4.6000000000000E-01  1.4617626033000E+00  4.4411040798000E-01
    48  4.7000000000000E-01  1.4693701327000E+00  4.0976402336000E-01
    49  4.8000000000000E-01  1.4749807484000E+00  3.7312308856000E-01
    50  4.9000000000000E-01  1.4785659102000E+00  3.3426858072000E-01
    51  5.0000000000000E-01  1.4801037934000E+00  2.9329420616000E-01
    52  5.1000000000000E-01  1.4795795556000E+00  2.5030623263000E-01
    53  5.2000000000000E-01  1.4769855311000E+00  2.0542320431000E-01
    54  5.3000000000000E-01  1.4723214646000E+00  1.5877561220000E-01
    55  5.4000000000000E-01  1.4655946657000E+00  1.1050540603000E-01
    56  5.5000000000000E-01  1.4568200295000E+00  6.0765405253000E-02
    57  5.6000000000000E-01  1.4460202399000E+00  9.7186166819000E-03
    58  5.7000000000000E-01  1.4332255975000E+00 -4.2462542291000E-02
    59  5.8000000000000E-01  1.4184741640000E+00 -9.5597214779000E-02
    60  5.9000000000000E-01  1.4018114928000E+00 -1.4949697528000E-01
    61  6.0000000000000E-01  1.3832906504000E+00 -2.0396712377000E-01
    62  6.1000000000000E-01  1.3629719024000E+00 -2.5880767513000E-01
    63  6.2000000000000E-01  1.3409225397000E+00 -3.1381477278000E-01
    64  6.3000000000000E-01  1.3172165790000E+00 -3.6878208833000E-01
    65  6.4000000000000E-01  1.2919344062000E+00 -4.2350200021000E-01
    66  6.5000000000000E-01  1.2651624184000E+00 -4.7776743642000E-01
    67  6.6000000000000E-01  1.2369925770000E+00 -5.3137327299000E-01
    68  6.7000000000000E-01  1.2075219529000E+00 -5.8411779008000E-01
    69  6.8000000000000E-01  1.1768522280000E+00 -6.3580433225000E-01
    70  6.9000000000000E-01  1.1450890917000E+00 -6.8624332186000E-01
    71  7.0000000000000E-01  1.1123417145000E+00 -7.3525344102000E-01
    72  7.1000000000000E-01  1.0787221241000E+00 -7.8266339820000E-01
    73  7.2000000000000E-01  1.0443446003000E+00 -8.2831339464000E-01
    74  7.3000000000000E-01  1.0093249454000E+00 -8.7205698868000E-01
    75  7.4000000000000E-01  9.7377980844000E-01 -9.1376251701000E-01
    76  7.5000000000000E-01  9.3782604619000E-01 -9.5331429610000E-01
    77  7.6000000000000E-01  9.0157999790000E-01 -9.9061403714000E-01
    78  7.7000000000000E-01  8.6515677943000E-01 -1.0255820411000E+00
    79  7.8000000000000E-01  8.2866957897000E-01 -1.0581582562000E+00
    80  7.9000000000000E-01  7.9222895987000E-01 -1.0883031762000E+00
    81  8.0000000000000E-01  7.5594217644000E-01 -1.1159985614000E+00
    82  8.1000000000000E-01  7.1991250851000E-01 -1.1412479595000E+00
    83  8.2000000000000E-01  6.8423862073000E-01 -1.1640770070000E+00
    84  8.3000000000000E-01  6.4901396925000E-01 -1.1845334610000E+00
    85  8.4000000000000E-01  6.1432616807000E-01 -1.2026871085000E+00
    86  8.5000000000000E-01  5.8025652407000E-01 -1.2186291524000E+00
    87  8.6000000000000E-01  5.4687955156000E-01 -1.2324714517000E+00
    88  8.7000000000000E-01  5.1426253346000E-01 -1.2443454452000E+00
    89  8.8000000000000E-01  4.8246512049000E-01 -1.2544007282000E+00
    90  8.9000000000000E-01  4.5153907718000E-01 -1.2628031847000E+00
    91  9.0000000000000E-01  4.2152804375000E-01 -1.2697328074000E+00
    92  9.1000000000000E-01  3.9246739073000E-01 -1.2753810971000E+00
    93  9.2000000000000E-01  3.6438415846000E-01 -1.2799480425000E+00
    94  9.3000000000000E-01  3.3729708743000E-01 -1.2836386630000E+00
    95  9.4000000000000E-01  3.1121674470000E-01 -1.2866590971000E+00
    96  9.5000000000000E-01  2.8614577872000E-01 -1.2892124726000E+00
    97  9.6000000000000E-01  2.6207929080000E-01 -1.2914946757000E+00
    98  9.7000000000000E-01  2.3900391490000E-01 -1.2936756915000E+00
    99  9.8000000000000E-01  2.1689525037000E-01 -1.2958596662000E+00
   100  9.9000000000000E-01  1.9571695473000E-01 -1.2980422178000E+00
   101  1.0000000000000E+00  1.7542633582000E-01 -1.3001149815000E+00
   102  1.0100000000000E+00  1.5597952089000E-01 -1.3018899621000E+00
   103  1.0200000000000E+00  1.3733545273000E-01 -1.3031214085000E+00
   104  1.0300000000000E+00  1.1945898036000E-01 -1.3035333161000E+00
   105  1.0400000000000E+00  1.0232240317000E-01 -1.3028448546000E+00
   106  1.0500000000000E+00  8.5906766178000E-02 -1.3007952648000E+00
   107  1.0600000000000E+00  7.0201559472000E-02 -1.2971683582000E+00
   108  1.0700000000000E+00  5.5202083323000E-02 -1.2917959370000E+00
   109  1.0800000000000E+00  4.0908212833000E-02 -1.2845625435000E+00
   110  1.0900000000000E+00  2.7322651474000E-02 -1.2754021296000E+00
   111  1.1000000000000E+00  1.4449552434000E-02 -1.2643019211000E+00
   112  1.1100000000000E+00  2.2924794736000E-03 -1.2512885971000E+00
   113  1.1200000000000E+00 -9.1463795809000E-03 -1.2364182898000E+00
   114  1.1300000000000E+00 -1.9866676857000E-02 -1.2197710344000E+00
   115  1.1400000000000E+00 -2.9870591045000E-02 -1.2014461557000E+00
   116  1.1500000000000E+00 -3.9163132132000E-02 -1.1815534230000E+00
   117  1.1600000000000E+00 -4.7751746110000E-02 -1.1602082975000E+00
   118  1.1700000000000E+00 -5.5646233095000E-02 -1.1375304995000E+00
   119  1.1800000000000E+00 -6.2859029656000E-02 -1.1136393103000E+00
   120  1.1900000000000E+00 -6.9404550160000E-02 -1.0886519806000E+00
   121  1.2000000000000E+00 -7.5298978055000E-02 -1.0626841247000E+00
   122  1.2100000000000E+00 -8.0560219252000E-02 -1.0358483939000E+00
   123  1.2200000000000E+00 -8.5207582009000E-02 -1.0082511989000E+00
   124  1.2300000000000E+00 -8.9261493184000E-02 -9.7999634019000E-01
   125  1.2400000000000E+00 -9.2743552306000E-02 -9.5118518589000E-01
   126  1.2500000000000E+00 -9.5675986651000E-02 -9.2191118746000E-01
   127  1.2600000000000E+00 -9.8081736251000E-02 -8.9226572858000E-01
   128  1.2700000000000E+00 -9.9984569237000E-02 -8.6233815167000E-01
   129  1.2800000000000E+00 -1.0140821108000E-01 -8.3221016020000E-01
   130  1.2900000000000E+00 -1.0237686037000E-01 -8.0196181178000E-01
   131  1.3000000000000E+00 -1.0291527237000E-01 -7.7167124833000E-01
   132  1.3100000000000E+00 -1.0304763296000E-01 -7.4140955351000E-01
   133  1.3200000000000E+00 -1.0279855512000E-01 -7.1124690239000E-01
   134  1.3300000000000E+00 -1.0219276313000E-01 -6.8125061993000E-01
   135  1.3400000000000E+00 -1.0125421172000E-01 -6.5148234274000E-01
   136  1.3500000000000E+00 -1.0000731270000E-01 -6.2200322648000E-01
   137  1.3600000000000E+00 -9.8475884505000E-02 -5.9286990907000E-01
   138  1.3700000000000E+00 -9.6683155735000E-02 -5.6413522515000E-01
   139  1.3800000000000E+00 -9.4652865381000E-02 -5.3585175828000E-01
   140  1.3900000000000E+00 -9.2407148794000E-02 -5.0806525504000E-01
   141  1.4000000000000E+00 -8.9968431992000E-02 -4.8082088535000E-01
   142  1.4100000000000E+00 -8.7358561353000E-02 -4.5416042620000E-01
   143  1.4200000000000E+00 -8.4598149391000E-02 -4.2812076636000E-01
   144  1.4300000000000E+00 -8.1708423332000E-02 -4.0273903691000E-01
   145  1.4400000000000E+00 -7.8708502047000E-02 -3.7804528437000E-01
   146  1.4500000000000E+00 -7.5617887318000E-02 -3.5406934172000E-01
   147  1.4600000000000E+00 -7.2454957197000E-02 -3.3083677578000E-01
   148  1.4700000000000E+00 -6.9237039420000E-02 -3.0836939663000E-01
   149  1.4800000000000E+00 -6.5981654247000E-02 -2.8668817987000E-01
   150  1.4900000000000E+00 -6.2704025175000E-02 -2.6580753784000E-01
   151  1.5000000000000E+00 -5.9420241468000E-02 -2.4574272344000E-01
   152  1.5100000000000E+00 -5.6143955043000E-02 -2.2650237268000E-01
   153  1.5200000000000E+00 -5.2889165163000E-02 -2.0809487221000E-01
   154  1.5300000000000E+00 -4.9668320436000E-02 -1.9052417454000E-01
   155  1.5400000000000E+00 -4.6493163433000E-02 -1.7379189025000E-01
   156  1.5500000000000E+00 -4.3374869731000E-02 -1.5789736668000E-01
   157  1.5600000000000E+00 -4.0322968353000E-02 -1.4283602904000E-01
   158  1.5700000000000E+00 -3.7347279768000E-02 -1.2860270105000E-01
   159  1.5800000000000E+00 -3.4455216166000E-02 -1.1518732815000E-01
   160  1.5900000000000E+00 -3.1655167237000E-02 -1.0258034276000E-01
   161  1.6000000000000E+00 -2.8952630685000E-02 -9.0767061892000E-02
   162  1.6100000000000E+00 -2.6354299051000E-02 -7.9733480306000E-02
   163  1.6200000000000E+00 -2.3864124533000E-02 -6.9461295247000E-02
   164  1.6300000000000E+00 -2.1486990686000E-02 -5.9932376770000E-02
   165  1.6400000000000E+00 -1.9225451142000E-02 -5.1125406534000E-02
   166  1.6500000000000E+00 -1.7082677976000E-02 -4.3018763410000E-02
   167  1.6600000000000E+00 -1.5059870770000E-02 -3.5588595878000E-02
   168  1.6700000000000E+00 -1.3158645039000E-02 -2.8810469389000E-02
   169  1.6800000000000E+00 -1.1378910224000E-02 -2.2658534362000E-02
   170  1.6900000000000E+00 -9.7208889383000E-03 -1.7106179289000E-02
   171  1.7000000000000E+00 -8.1832877707000E-03 -1.2126143602000E-02
   172  1.7100000000000E+00 -6.7651002834000E-03 -7.6902123400000E-03
   173  1.7200000000000E+00 -5.4639433593000E-03 -3.7703460601000E-03
   174  1.7300000000000E+00 -4.2777382708000E-03 -3.3722324204000E-04
   175  1.7400000000000E+00 -3.2031524073000E-03  2.6373100693000E-03
   176  1.7500000000000E+00 -2.2371784773000E-03  5.1832665373000E-03
   177  1.7600000000000E+00 -1.3757014950000E-03  7.3282374191000E-03
   178  1.7700000000000E+00 -6.1491207677000E-04  9.1025871235000E-03
   179  1.7800000000000E+00  4.9886995256000E-05  1.0532798361000E-02
   180  1.7900000000000E+00  6.2322410523000E-04  1.1648955559000E-02
   181  1.8000000000000E+00  1.1101570064000E-03  1.2476385248000E-02
   182  1.8100000000000E+00  1.5158061864000E-03  1.3043881552000E-02
   183  1.8200000000000E+00  1.8454499848000E-03  1.3375853657000E-02
   184  1.8300000000000E+00  2.1045885879000E-03  1.3498982564000E-02
   185  1.8400000000000E+00  2.2986611507000E-03  1.3436817512000E-02
   186  1.8500000000000E+00  2.4332926881000E-03  1.3213232406000E-02
   187  1.8600000000000E+00  2.5140583269000E-03  1.2851022799000E-02
   188  1.8700000000000E+00  2.5464335445000E-03  1.2370652972000E-02
   189  1.8800000000000E+00  2.5361303189000E-03  1.1794256706000E-02
   190  1.8900000000000E+00  2.4881978732000E-03  1.1138446486000E-02
   191  1.9000000000000E+00  2.4084916278000E-03  1.0424690565000E-02
   192  1.9100000000000E+00  2.3015499122000E-03  9.6663589354000E-03
   193  1.9200000000000E+00  2.1728537596000E-03  8.8816343698000E-03
   194  1.9300000000000E+00  2.0267989692000E-03  8.0831860882000E-03
   195  1.9400000000000E+00  1.8680715114000E-03  7.2846697898000E-03
   196  1.9500000000000E+00  1.7010335977000E-03  6.4983664762000E-03
   197  1.9600000000000E+00  1.5292707491000E-03  5.7331198181000E-03
   198  1.9700000000000E+00  1.3571954647000E-03  5.0009050780000E-03
   199  1.9800000000000E+00  1.1872802660000E-03  4.3065136190000E-03
   200  1.9900000000000E+00  1.0233351309000E-03  3.6592634653000E-03
   201  2.0000000000000E+00  8.6741844883000E-04  3.0627207598000E-03
   202  2.0100000000000E+00  7.2195940081000E-04  2.5214610468000E-03
   203  2.0200000000000E+00  5.8908084118000E-04  2.0391791747000E-03
   204  2.0300000000000E+00  4.6949621434000E-04  1.6153989041000E-03
   205  2.0400000000000E+00  3.6538862199000E-04  1.2536523444000E-03
   206  2.0500000000000E+00  2.7618794115000E-04  9.5008839781000E-04
   207  2.0600000000000E+00  2.0267272362000E-04  7.0428424900000E-04
   208  2.0700000000000E+00  1.4442026787000E-04  5.1280687415000E-04
   209  2.0800000000000E+00  1.0014664161000E-04  3.7003531322000E-04
   210  2.0900000000000E+00  6.9683952187000E-05  2.7295895178000E-04
   211  2.1000000000000E+00  5.0123553300000E-05  2.1213338763000E-04
   212  2.1100000000000E+00  4.0874181157000E-05  1.8624954189000E-04
   213  2.1200000000000E+00  3.7996112105000E-05  1.7989529541000E-04
   214  2.1300000000000E+00  3.5140131078000E-05  1.6741582346000E-04
   215  2.1400000000000E+00  2.0847939754000E-05  1.0039169796000E-04
   216  2.1500000000000E+00  6.2470412023000E-06  3.0302775863000E-05
   217  2.1600000000000E+00 -1.7478415719000E-06 -8.3210652305000E-06
   218  2.1700000000000E+00 -2.1621690410000E-06 -1.0293581477000E-05
   219  2.1800000000000E+00 -2.1092359570000E-07 -1.0041579435000E-06
   220  2.1900000000000E+00  0.0000000000000E+00  0.0000000000000E+00
   221  2.2000000000000E+00  0.0000000000000E+00  0.0000000000000E+00
   222  2.2100000000000E+00  0.0000000000000E+00  0.0000000000000E+00
   223  2.2200000000000E+00  0.0000000000000E+00  0.0000000000000E+00
   224  2.2300000000000E+00  0.0000000000000E+00  0.0000000000000E+00
   225  2.2400000000000E+00  0.0000000000000E+00  0.0000000000000E+00
   226  2.2500000000000E+00  0.0000000000000E+00  0.0000000000000E+00
   227  2.2600000000000E+00  0.0000000000000E+00  0.0000000000000E+00
   228  2.2700000000000E+00  0.0000000000000E+00  0.0000000000000E+00
   229  2.2800000000000E+00  0.0000000000000E+00  0.0000000000000E+00
   230  2.2900000000000E+00  0.0000000000000E+00  0.0000000000000E+00
   231  2.3000000000000E+00  0.0000000000000E+00  0.0000000000000E+00
   232  2.3100000000000E+00  0.0000000000000E+00  0.0000000000000E+00
   233  2.3200000000000E+00  0.0000000000000E+00  0.0000000000000E+00
   234  2.3300000000000E+00  0.0000000000000E+00  0.0000000000000E+00
   235  2.3400000000000E+00  0.0000000000000E+00  0.0000000000000E+00
   236  2.3500000000000E+00  0.0000000000000E+00  0.0000000000000E+00
   237  2.3600000000000E+00  0.0000000000000E+00  0.0000000000000E+00
   238  2.3700000000000E+00  0.0000000000000E+00  0.0000000000000E+00
   239  2.3800000000000E+00  0.0000000000000E+00  0.0000000000000E+00
   240  2.3900000000000E+00  0.0000000000000E+00  0.0000000000000E+00
   241  2.4000000000000E+00  0.0000000000000E+00  0.0000000000000E+00
   242  2.4100000000000E+00  0.0000000000000E+00  0.0000000000000E+00
   243  2.4200000000000E+00  0.0000000000000E+00  0.0000000000000E+00
   244  2.4300000000000E+00  0.0000000000000E+00  0.0000000000000E+00
   245  2.4400000000000E+00  0.0000000000000E+00  0.0000000000000E+00
   246  2.4500000000000E+00  0.0000000000000E+00  0.0000000000000E+00
   247  2.4600000000000E+00  0.0000000000000E+00  0.0000000000000E+00
   248  2.4700000000000E+00  0.0000000000000E+00  0.0000000000000E+00
   249  2.4800000000000E+00  0.0000000000000E+00  0.0000000000000E+00
   250  2.4900000000000E+00  0.0000000000000E+00  0.0000000000000E+00
   251  2.5000000000000E+00  0.0000000000000E+00  0.0000000000000E+00
   252  2.5100000000000E+00  0.0000000000000E+00  0.0000000000000E+00
   253  2.5200000000000E+00  0.0000000000000E+00  0.0000000000000E+00
   254  2.5300000000000E+00  0.0000000000000E+00  0.0000000000000E+00
   255  2.5400000000000E+00  0.0000000000000E+00  0.0000000000000E+00
   256  2.5500000000000E+00  0.0000000000000E+00  0.0000000000000E+00
   257  2.5600000000000E+00  0.0000000000000E+00  0.0000000000000E+00
   258  2.5700000000000E+00  0.0000000000000E+00  0.0000000000000E+00
   259  2.5800000000000E+00  0.0000000000000E+00  0.0000000000000E+00
   260  2.5900000000000E+00  0.0000000000000E+00  0.0000000000000E+00
   261  2.6000000000000E+00  0.0000000000000E+00  0.0000000000000E+00
   262  2.6100000000000E+00  0.0000000000000E+00  0.0000000000000E+00
   263  2.6200000000000E+00  0.0000000000000E+00  0.0000000000000E+00
   264  2.6300000000000E+00  0.0000000000000E+00  0.0000000000000E+00
   265  2.6400000000000E+00  0.0000000000000E+00  0.0000000000000E+00
   266  2.6500000000000E+00  0.0000000000000E+00  0.0000000000000E+00
   267  2.6600000000000E+00  0.0000000000000E+00  0.0000000000000E+00
   268  2.6700000000000E+00  0.0000000000000E+00  0.0000000000000E+00
   269  2.6800000000000E+00  0.0000000000000E+00  0.0000000000000E+00
   270  2.6900000000000E+00  0.0000000000000E+00  0.0000000000000E+00
   271  2.7000000000000E+00  0.0000000000000E+00  0.0000000000000E+00
   272  2.7100000000000E+00  0.0000000000000E+00  0.0000000000000E+00
   273  2.7200000000000E+00  0.0000000000000E+00  0.0000000000000E+00
   274  2.7300000000000E+00  0.0000000000000E+00  0.0000000000000E+00
   275  2.7400000000000E+00  0.0000000000000E+00  0.0000000000000E+00
   276  2.7500000000000E+00  0.0000000000000E+00  0.0000000000000E+00
   277  2.7600000000000E+00  0.0000000000000E+00  0.0000000000000E+00
   278  2.7700000000000E+00  0.0000000000000E+00  0.0000000000000E+00
   279  2.7800000000000E+00  0.0000000000000E+00  0.0000000000000E+00
   280  2.7900000000000E+00  0.0000000000000E+00  0.0000000000000E+00
   281  2.8000000000000E+00  0.0000000000000E+00  0.0000000000000E+00
   282  2.8100000000000E+00  0.0000000000000E+00  0.0000000000000E+00
   283  2.8200000000000E+00  0.0000000000000E+00  0.0000000000000E+00
   284  2.8300000000000E+00  0.0000000000000E+00  0.0000000000000E+00
   285  2.8400000000000E+00  0.0000000000000E+00  0.0000000000000E+00
   286  2.8500000000000E+00  0.0000000000000E+00  0.0000000000000E+00
   287  2.8600000000000E+00  0.0000000000000E+00  0.0000000000000E+00
   288  2.8700000000000E+00  0.0000000000000E+00  0.0000000000000E+00
   289  2.8800000000000E+00  0.0000000000000E+00  0.0000000000000E+00
   290  2.8900000000000E+00  0.0000000000000E+00  0.0000000000000E+00
   291  2.9000000000000E+00  0.0000000000000E+00  0.0000000000000E+00
   292  2.9100000000000E+00  0.0000000000000E+00  0.0000000000000E+00
   293  2.9200000000000E+00  0.0000000000000E+00  0.0000000000000E+00
   294  2.9300000000000E+00  0.0000000000000E+00  0.0000000000000E+00
   295  2.9400000000000E+00  0.0000000000000E+00  0.0000000000000E+00
   296  2.9500000000000E+00  0.0000000000000E+00  0.0000000000000E+00
   297  2.9600000000000E+00  0.0000000000000E+00  0.0000000000000E+00
   298  2.9700000000000E+00  0.0000000000000E+00  0.0000000000000E+00
   299  2.9800000000000E+00  0.0000000000000E+00  0.0000000000000E+00
   300  2.9900000000000E+00  0.0000000000000E+00  0.0000000000000E+00
   301  3.0000000000000E+00  0.0000000000000E+00  0.0000000000000E+00
   302  3.0100000000000E+00  0.0000000000000E+00  0.0000000000000E+00
   303  3.0200000000000E+00  0.0000000000000E+00  0.0000000000000E+00
   304  3.0300000000000E+00  0.0000000000000E+00  0.0000000000000E+00
   305  3.0400000000000E+00  0.0000000000000E+00  0.0000000000000E+00
   306  3.0500000000000E+00  0.0000000000000E+00  0.0000000000000E+00
   307  3.0600000000000E+00  0.0000000000000E+00  0.0000000000000E+00
   308  3.0700000000000E+00  0.0000000000000E+00  0.0000000000000E+00
   309  3.0800000000000E+00  0.0000000000000E+00  0.0000000000000E+00
   310  3.0900000000000E+00  0.0000000000000E+00  0.0000000000000E+00
   311  3.1000000000000E+00  0.0000000000000E+00  0.0000000000000E+00
   312  3.1100000000000E+00  0.0000000000000E+00  0.0000000000000E+00
   313  3.1200000000000E+00  0.0000000000000E+00  0.0000000000000E+00
   314  3.1300000000000E+00  0.0000000000000E+00  0.0000000000000E+00
   315  3.1400000000000E+00  0.0000000000000E+00  0.0000000000000E+00
   316  3.1500000000000E+00  0.0000000000000E+00  0.0000000000000E+00
   317  3.1600000000000E+00  0.0000000000000E+00  0.0000000000000E+00
   318  3.1700000000000E+00  0.0000000000000E+00  0.0000000000000E+00
   319  3.1800000000000E+00  0.0000000000000E+00  0.0000000000000E+00
   320  3.1900000000000E+00  0.0000000000000E+00  0.0000000000000E+00
   321  3.2000000000000E+00  0.0000000000000E+00  0.0000000000000E+00
   322  3.2100000000000E+00  0.0000000000000E+00  0.0000000000000E+00
   323  3.2200000000000E+00  0.0000000000000E+00  0.0000000000000E+00
   324  3.2300000000000E+00  0.0000000000000E+00  0.0000000000000E+00
   325  3.2400000000000E+00  0.0000000000000E+00  0.0000000000000E+00
   326  3.2500000000000E+00  0.0000000000000E+00  0.0000000000000E+00
   327  3.2600000000000E+00  0.0000000000000E+00  0.0000000000000E+00
   328  3.2700000000000E+00  0.0000000000000E+00  0.0000000000000E+00
   329  3.2800000000000E+00  0.0000000000000E+00  0.0000000000000E+00
   330  3.2900000000000E+00  0.0000000000000E+00  0.0000000000000E+00
   331  3.3000000000000E+00  0.0000000000000E+00  0.0000000000000E+00
   332  3.3100000000000E+00  0.0000000000000E+00  0.0000000000000E+00
   333  3.3200000000000E+00  0.0000000000000E+00  0.0000000000000E+00
   334  3.3300000000000E+00  0.0000000000000E+00  0.0000000000000E+00
   335  3.3400000000000E+00  0.0000000000000E+00  0.0000000000000E+00
   336  3.3500000000000E+00  0.0000000000000E+00  0.0000000000000E+00
   337  3.3600000000000E+00  0.0000000000000E+00  0.0000000000000E+00
   338  3.3700000000000E+00  0.0000000000000E+00  0.0000000000000E+00
   339  3.3800000000000E+00  0.0000000000000E+00  0.0000000000000E+00
   340  3.3900000000000E+00  0.0000000000000E+00  0.0000000000000E+00
   341  3.4000000000000E+00  0.0000000000000E+00  0.0000000000000E+00
   342  3.4100000000000E+00  0.0000000000000E+00  0.0000000000000E+00
   343  3.4200000000000E+00  0.0000000000000E+00  0.0000000000000E+00
   344  3.4300000000000E+00  0.0000000000000E+00  0.0000000000000E+00
   345  3.4400000000000E+00  0.0000000000000E+00  0.0000000000000E+00
   346  3.4500000000000E+00  0.0000000000000E+00  0.0000000000000E+00
   347  3.4600000000000E+00  0.0000000000000E+00  0.0000000000000E+00
   348  3.4700000000000E+00  0.0000000000000E+00  0.0000000000000E+00
   349  3.4800000000000E+00  0.0000000000000E+00  0.0000000000000E+00
   350  3.4900000000000E+00  0.0000000000000E+00  0.0000000000000E+00
   351  3.5000000000000E+00  0.0000000000000E+00  0.0000000000000E+00
   352  3.5100000000000E+00  0.0000000000000E+00  0.0000000000000E+00
   353  3.5200000000000E+00  0.0000000000000E+00  0.0000000000000E+00
   354  3.5300000000000E+00  0.0000000000000E+00  0.0000000000000E+00
   355  3.5400000000000E+00  0.0000000000000E+00  0.0000000000000E+00
   356  3.5500000000000E+00  0.0000000000000E+00  0.0000000000000E+00
   357  3.5600000000000E+00  0.0000000000000E+00  0.0000000000000E+00
   358  3.5700000000000E+00  0.0000000000000E+00  0.0000000000000E+00
   359  3.5800000000000E+00  0.0000000000000E+00  0.0000000000000E+00
   360  3.5900000000000E+00  0.0000000000000E+00  0.0000000000000E+00
   361  3.6000000000000E+00  0.0000000000000E+00  0.0000000000000E+00
   362  3.6100000000000E+00  0.0000000000000E+00  0.0000000000000E+00
   363  3.6200000000000E+00  0.0000000000000E+00  0.0000000000000E+00
   364  3.6300000000000E+00  0.0000000000000E+00  0.0000000000000E+00
   365  3.6400000000000E+00  0.0000000000000E+00  0.0000000000000E+00
   366  3.6500000000000E+00  0.0000000000000E+00  0.0000000000000E+00
   367  3.6600000000000E+00  0.0000000000000E+00  0.0000000000000E+00
   368  3.6700000000000E+00  0.0000000000000E+00  0.0000000000000E+00
   369  3.6800000000000E+00  0.0000000000000E+00  0.0000000000000E+00
   370  3.6900000000000E+00  0.0000000000000E+00  0.0000000000000E+00
   371  3.7000000000000E+00  0.0000000000000E+00  0.0000000000000E+00
   372  3.7100000000000E+00  0.0000000000000E+00  0.0000000000000E+00
   373  3.7200000000000E+00  0.0000000000000E+00  0.0000000000000E+00
   374  3.7300000000000E+00  0.0000000000000E+00  0.0000000000000E+00
   375  3.7400000000000E+00  0.0000000000000E+00  0.0000000000000E+00
   376  3.7500000000000E+00  0.0000000000000E+00  0.0000000000000E+00
   377  3.7600000000000E+00  0.0000000000000E+00  0.0000000000000E+00
   378  3.7700000000000E+00  0.0000000000000E+00  0.0000000000000E+00
   379  3.7800000000000E+00  0.0000000000000E+00  0.0000000000000E+00
   380  3.7900000000000E+00  0.0000000000000E+00  0.0000000000000E+00
   381  3.8000000000000E+00  0.0000000000000E+00  0.0000000000000E+00
   382  3.8100000000000E+00  0.0000000000000E+00  0.0000000000000E+00
   383  3.8200000000000E+00  0.0000000000000E+00  0.0000000000000E+00
   384  3.8300000000000E+00  0.0000000000000E+00  0.0000000000000E+00
   385  3.8400000000000E+00  0.0000000000000E+00  0.0000000000000E+00
   386  3.8500000000000E+00  0.0000000000000E+00  0.0000000000000E+00
   387  3.8600000000000E+00  0.0000000000000E+00  0.0000000000000E+00
   388  3.8700000000000E+00  0.0000000000000E+00  0.0000000000000E+00
   389  3.8800000000000E+00  0.0000000000000E+00  0.0000000000000E+00
   390  3.8900000000000E+00  0.0000000000000E+00  0.0000000000000E+00
   391  3.9000000000000E+00  0.0000000000000E+00  0.0000000000000E+00
   392  3.9100000000000E+00  0.0000000000000E+00  0.0000000000000E+00
   393  3.9200000000000E+00  0.0000000000000E+00  0.0000000000000E+00
   394  3.9300000000000E+00  0.0000000000000E+00  0.0000000000000E+00
   395  3.9400000000000E+00  0.0000000000000E+00  0.0000000000000E+00
   396  3.9500000000000E+00  0.0000000000000E+00  0.0000000000000E+00
   397  3.9600000000000E+00  0.0000000000000E+00  0.0000000000000E+00
   398  3.9700000000000E+00  0.0000000000000E+00  0.0000000000000E+00
   399  3.9800000000000E+00  0.0000000000000E+00  0.0000000000000E+00
   400  3.9900000000000E+00  0.0000000000000E+00  0.0000000000000E+00
   401  4.0000000000000E+00  0.0000000000000E+00  0.0000000000000E+00
   402  4.0100000000000E+00  0.0000000000000E+00  0.0000000000000E+00
   403  4.0200000000000E+00  0.0000000000000E+00  0.0000000000000E+00
   404  4.0300000000000E+00  0.0000000000000E+00  0.0000000000000E+00
   405  4.0400000000000E+00  0.0000000000000E+00  0.0000000000000E+00
   406  4.0500000000000E+00  0.0000000000000E+00  0.0000000000000E+00
   407  4.0600000000000E+00  0.0000000000000E+00  0.0000000000000E+00
   408  4.0700000000000E+00  0.0000000000000E+00  0.0000000000000E+00
   409  4.0800000000000E+00  0.0000000000000E+00  0.0000000000000E+00
   410  4.0900000000000E+00  0.0000000000000E+00  0.0000000000000E+00
   411  4.1000000000000E+00  0.0000000000000E+00  0.0000000000000E+00
   412  4.1100000000000E+00  0.0000000000000E+00  0.0000000000000E+00
   413  4.1200000000000E+00  0.0000000000000E+00  0.0000000000000E+00
   414  4.1300000000000E+00  0.0000000000000E+00  0.0000000000000E+00
   415  4.1400000000000E+00  0.0000000000000E+00  0.0000000000000E+00
   416  4.1500000000000E+00  0.0000000000000E+00  0.0000000000000E+00
   417  4.1600000000000E+00  0.0000000000000E+00  0.0000000000000E+00
   418  4.1700000000000E+00  0.0000000000000E+00  0.0000000000000E+00
   419  4.1800000000000E+00  0.0000000000000E+00  0.0000000000000E+00
   420  4.1900000000000E+00  0.0000000000000E+00  0.0000000000000E+00
   421  4.2000000000000E+00  0.0000000000000E+00  0.0000000000000E+00
   422  4.2100000000000E+00  0.0000000000000E+00  0.0000000000000E+00
   423  4.2200000000000E+00  0.0000000000000E+00  0.0000000000000E+00