K   ONCVPSP-2.1.1   r_core=    2.17031 2.33134 2.35932
    19.0000   9.0000   150105   zatom,zion,pspd
    8   11   2   4   600   0   pspcod,pspxc,lmax,lloc,mmax,r2well
    5.99000000   0.00000000   0.00000000   rchrg fchrg qchrg
    2   2   2   0   0   nproj
    1   1   extension_switch
       0                         2.6717679226500E+00 -1.7460917212000E-01
     1  0.0000000000000E+00  0.0000000000000E+00  0.0000000000000E+00
     2  1.0000000000000E-02 -4.4061561419000E-02 -2.6723306943000E-02
     3  2.0000000000000E-02 -8.8092501979000E-02 -5.3270807166000E-02
     4  3.0000000000000E-02 -1.3206209095000E-01 -7.9467688329000E-02
     5  4.0000000000000E-02 -1.7593937897000E-01 -1.0514112098000E-01
     6  5.0000000000000E-02 -2.1969309142000E-01 -1.3012123539000E-01
     7  6.0000000000000E-02 -2.6329152508000E-01 -1.5424208093000E-01
     8  7.0000000000000E-02 -3.0670244910000E-01 -1.7734256233000E-01
     9  8.0000000000000E-02 -3.4989301125000E-01 -1.9926734738000E-01
    10  9.0000000000000E-02 -3.9282965048000E-01 -2.1986774064000E-01
    11  1.0000000000000E-01 -4.3547801677000E-01 -2.3900251800000E-01
    12  1.1000000000000E-01 -4.7780289906000E-01 -2.5653871736000E-01
    13  1.2000000000000E-01 -5.1976816228000E-01 -2.7235238054000E-01
    14  1.3000000000000E-01 -5.6133669400000E-01 -2.8632924234000E-01
    15  1.4000000000000E-01 -6.0247036174000E-01 -2.9836536229000E-01
    16  1.5000000000000E-01 -6.4312998129000E-01 -3.0836769618000E-01
    17  1.6000000000000E-01 -6.8327529687000E-01 -3.1625460283000E-01
    18  1.7000000000000E-01 -7.2286497337000E-01 -3.2195628469000E-01
    19  1.8000000000000E-01 -7.6185660135000E-01 -3.2541515813000E-01
    20  1.9000000000000E-01 -8.0020671496000E-01 -3.2658615251000E-01
    21  2.0000000000000E-01 -8.3787082305000E-01 -3.2543693579000E-01
    22  2.1000000000000E-01 -8.7480345363000E-01 -3.2194806539000E-01
    23  2.2000000000000E-01 -9.1095821188000E-01 -3.1611306388000E-01
    24  2.3000000000000E-01 -9.4628785136000E-01 -3.0793841835000E-01
    25  2.4000000000000E-01 -9.8074435866000E-01 -2.9744350467000E-01
    26  2.5000000000000E-01 -1.0142790512000E+00 -2.8466043607000E-01
    27  2.6000000000000E-01 -1.0468426873000E+00 -2.6963383775000E-01
    28  2.7000000000000E-01 -1.0783855894000E+00 -2.5242054882000E-01
    29  2.8000000000000E-01 -1.1088577786000E+00 -2.3308925295000E-01
    30  2.9000000000000E-01 -1.1382091206000E+00 -2.1172004084000E-01
    31  3.0000000000000E-01 -1.1663894828000E+00 -1.8840390649000E-01
    32  3.1000000000000E-01 -1.1933489000000E+00 -1.6324218165000E-01
    33  3.2000000000000E-01 -1.2190377512000E+00 -1.3634590920000E-01
    34  3.3000000000000E-01 -1.2434069442000E+00 -1.0783515918000E-01
    35  3.4000000000000E-01 -1.2664081042000E+00 -7.7838305288000E-02
    36  3.5000000000000E-01 -1.2879937764000E+00 -4.6491229187000E-02
    37  3.6000000000000E-01 -1.3081176222000E+00 -1.3936522373000E-02
    38  3.7000000000000E-01 -1.3267346347000E+00  1.9677402823000E-02
    39  3.8000000000000E-01 -1.3438013425000E+00  5.4197180362000E-02
    40  3.9000000000000E-01 -1.3592760226000E+00  8.9465410791000E-02
    41  4.0000000000000E-01 -1.3731189162000E+00  1.2532161244000E-01
    42  4.1000000000000E-01 -1.3852924396000E+00  1.6160317023000E-01
    43  4.2000000000000E-01 -1.3957613930000E+00  1.9814629529000E-01
    44  4.3000000000000E-01 -1.4044931689000E+00  2.3478699602000E-01
    45  4.4000000000000E-01 -1.4114579551000E+00  2.7136204439000E-01
    46  4.5000000000000E-01 -1.4166289314000E+00  3.0770993441000E-01
    47  4.6000000000000E-01 -1.4199824590000E+00  3.4367181987000E-01
    48  4.7000000000000E-01 -1.4214982630000E+00  3.7909244086000E-01
    49  4.8000000000000E-01 -1.4211596124000E+00  4.1382105603000E-01
    50  4.9000000000000E-01 -1.4189534752000E+00  4.4771228036000E-01
    51  5.0000000000000E-01 -1.4148706688000E+00  4.8062691510000E-01
    52  5.1000000000000E-01 -1.4089059958000E+00  5.1243272599000E-01
    53  5.2000000000000E-01 -1.4010583941000E+00  5.4300531851000E-01
    54  5.3000000000000E-01 -1.3913310110000E+00  5.7222865699000E-01
    55  5.4000000000000E-01 -1.3797313211000E+00  5.9999582254000E-01
    56  5.5000000000000E-01 -1.3662712132000E+00  6.2620964358000E-01
    57  5.6000000000000E-01 -1.3509670158000E+00  6.5078302916000E-01
    58  5.7000000000000E-01 -1.3338396023000E+00  6.7363975677000E-01
    59  5.8000000000000E-01 -1.3149143472000E+00  6.9471448021000E-01
    60  5.9000000000000E-01 -1.2942212057000E+00  7.1395346070000E-01
    61  6.0000000000000E-01 -1.2717946463000E+00  7.3131448735000E-01
    62  6.1000000000000E-01 -1.2476736557000E+00  7.4676726987000E-01
    63  6.2000000000000E-01 -1.2219016887000E+00  7.6029354693000E-01
    64  6.3000000000000E-01 -1.1945265716000E+00  7.7188690486000E-01
    65  6.4000000000000E-01 -1.1656004643000E+00  7.8155311718000E-01
    66  6.5000000000000E-01 -1.1351797176000E+00  7.8930975173000E-01
    67  6.6000000000000E-01 -1.1033247574000E+00  7.9518600438000E-01
    68  6.7000000000000E-01 -1.0700999552000E+00  7.9922263481000E-01
    69  6.8000000000000E-01 -1.0355734550000E+00  8.0147151081000E-01
    70  6.9000000000000E-01 -9.9981700015000E-01  8.0199522213000E-01
    71  7.0000000000000E-01 -9.6290574741000E-01  8.0086663908000E-01
    72  7.1000000000000E-01 -9.2491804348000E-01  7.9816845955000E-01
    73  7.2000000000000E-01 -8.8593520265000E-01  7.9399257988000E-01
    74  7.3000000000000E-01 -8.4604127398000E-01  7.8843946963000E-01
    75  7.4000000000000E-01 -8.0532278685000E-01  7.8161750530000E-01
    76  7.5000000000000E-01 -7.6386848639000E-01  7.7364224637000E-01
    77  7.6000000000000E-01 -7.2176906500000E-01  7.6463567933000E-01
    78  7.7000000000000E-01 -6.7911687221000E-01  7.5472541097000E-01
    79  7.8000000000000E-01 -6.3600559347000E-01  7.4404377973000E-01
    80  7.9000000000000E-01 -5.9252998748000E-01  7.3272705111000E-01
    81  8.0000000000000E-01 -5.4878556557000E-01  7.2091451358000E-01
    82  8.1000000000000E-01 -5.0486828011000E-01  7.0874757629000E-01
    83  8.2000000000000E-01 -4.6087420976000E-01  6.9636885600000E-01
    84  8.3000000000000E-01 -4.1689924306000E-01  6.8392125885000E-01
    85  8.4000000000000E-01 -3.7303876169000E-01  6.7154706286000E-01
    86  8.5000000000000E-01 -3.2938732504000E-01  6.5938700678000E-01
    87  8.6000000000000E-01 -2.8603835734000E-01  6.4757939078000E-01
    88  8.7000000000000E-01 -2.4308383888000E-01  6.3625919480000E-01
    89  8.8000000000000E-01 -2.0061400274000E-01  6.2555721977000E-01
    90  8.9000000000000E-01 -1.5871703845000E-01  6.1559925722000E-01
    91  9.0000000000000E-01 -1.1747880394000E-01  6.0650529236000E-01
    92  9.1000000000000E-01 -7.6982547138000E-02  5.9838874569000E-01
    93  9.2000000000000E-01 -3.7308638673000E-02  5.9135575794000E-01
    94  9.3000000000000E-01  1.4656374125000E-03  5.8550463903000E-01
    95  9.4000000000000E-01  3.9266393457000E-02  5.8092507810000E-01
    96  9.5000000000000E-01  7.6023426390000E-02  5.7769742914000E-01
    97  9.6000000000000E-01  1.1167030178000E-01  5.7589253447000E-01
    98  9.7000000000000E-01  1.4614460073000E-01  5.7557115451000E-01
    99  9.8000000000000E-01  1.7938809836000E-01  5.7678359198000E-01
   100  9.9000000000000E-01  2.1134692375000E-01  5.7956938377000E-01
   101  1.0000000000000E+00  2.4197170079000E-01  5.8395706195000E-01
   102  1.0100000000000E+00  2.7121749488000E-01  5.8996439221000E-01
   103  1.0200000000000E+00  2.9904439554000E-01  5.9759712499000E-01
   104  1.0300000000000E+00  3.2541727402000E-01  6.0684976643000E-01
   105  1.0400000000000E+00  3.5030581933000E-01  6.1770567254000E-01
   106  1.0500000000000E+00  3.7368463374000E-01  6.3013703119000E-01
   107  1.0600000000000E+00  3.9553314395000E-01  6.4410526286000E-01
   108  1.0700000000000E+00  4.1583576524000E-01  6.5956088461000E-01
   109  1.0800000000000E+00  4.3458216334000E-01  6.7644332343000E-01
   110  1.0900000000000E+00  4.5176669613000E-01  6.9468236237000E-01
   111  1.1000000000000E+00  4.6738854119000E-01  7.1419817470000E-01
   112  1.1100000000000E+00  4.8145136591000E-01  7.3490214620000E-01
   113  1.1200000000000E+00  4.9396408601000E-01  7.5669610183000E-01
   114  1.1300000000000E+00  5.0493996511000E-01  7.7947428617000E-01
   115  1.1400000000000E+00  5.1439662498000E-01  8.0312370355000E-01
   116  1.1500000000000E+00  5.2235574282000E-01  8.2752470607000E-01
   117  1.1600000000000E+00  5.2884366369000E-01  8.5255129280000E-01
   118  1.1700000000000E+00  5.3389043002000E-01  8.7807265042000E-01
   119  1.1800000000000E+00  5.3752973841000E-01  9.0395350430000E-01
   120  1.1900000000000E+00  5.3979891781000E-01  9.3005463945000E-01
   121  1.2000000000000E+00  5.4073881216000E-01  9.5623477106000E-01
   122  1.2100000000000E+00  5.4039319833000E-01  9.8235064439000E-01
   123  1.2200000000000E+00  5.3880879453000E-01  1.0082567564000E+00
   124  1.2300000000000E+00  5.3603504096000E-01  1.0338092946000E+00
   125  1.2400000000000E+00  5.3212364163000E-01  1.0588647616000E+00
   126  1.2500000000000E+00  5.2712866121000E-01  1.0832794579000E+00
   127  1.2600000000000E+00  5.2110588245000E-01  1.1069143656000E+00
   128  1.2700000000000E+00  5.1411260936000E-01  1.1296336885000E+00
   129  1.2800000000000E+00  5.0620799456000E-01  1.1513028331000E+00
   130  1.2900000000000E+00  4.9745178458000E-01  1.1717954506000E+00
   131  1.3000000000000E+00  4.8790451668000E-01  1.1909904713000E+00
   132  1.3100000000000E+00  4.7762822340000E-01  1.2087688583000E+00
   133  1.3200000000000E+00  4.6668402427000E-01  1.2250246187000E+00
   134  1.3300000000000E+00  4.5513361216000E-01  1.2396565955000E+00
   135  1.3400000000000E+00  4.4303940791000E-01  1.2525684113000E+00
   136  1.3500000000000E+00  4.3046162379000E-01  1.2636796248000E+00
   137  1.3600000000000E+00  4.1746137080000E-01  1.2729126612000E+00
   138  1.3700000000000E+00  4.0409849648000E-01  1.2802014170000E+00
   139  1.3800000000000E+00  3.9043074367000E-01  1.2854929805000E+00
   140  1.3900000000000E+00  3.7651696818000E-01  1.2887366038000E+00
   141  1.4000000000000E+00  3.6241172328000E-01  1.2899014475000E+00
   142  1.4100000000000E+00  3.4816971169000E-01  1.2889610698000E+00
   143  1.4200000000000E+00  3.3384390499000E-01  1.2858999300000E+00
   144  1.4300000000000E+00  3.1948341801000E-01  1.2807182127000E+00
   145  1.4400000000000E+00  3.0513873462000E-01  1.2734173339000E+00
   146  1.4500000000000E+00  2.9085401311000E-01  1.2640201682000E+00
   147  1.4600000000000E+00  2.7667424410000E-01  1.2525514814000E+00
   148  1.4700000000000E+00  2.6264057988000E-01  1.2390500696000E+00
   149  1.4800000000000E+00  2.4879127072000E-01  1.2235647474000E+00
   150  1.4900000000000E+00  2.3516415910000E-01  1.2061498520000E+00
   151  1.5000000000000E+00  2.2179077293000E-01  1.1868754435000E+00
   152  1.5100000000000E+00  2.0870468379000E-01  1.1658119891000E+00
   153  1.5200000000000E+00  1.9593180429000E-01  1.1430461947000E+00
   154  1.5300000000000E+00  1.8349951850000E-01  1.1186657477000E+00
   155  1.5400000000000E+00  1.7142963415000E-01  1.0927695733000E+00
   156  1.5500000000000E+00  1.5974290668000E-01  1.0654603116000E+00
   157  1.5600000000000E+00  1.4845698134000E-01  1.0368475772000E+00
   158  1.5700000000000E+00  1.3758628562000E-01  1.0070452529000E+00
   159  1.5800000000000E+00  1.2714423854000E-01  9.7617195375000E-01
   160  1.5900000000000E+00  1.1713941029000E-01  9.4434889780000E-01
   161  1.6000000000000E+00  1.0758097004000E-01  9.1170175214000E-01
   162  1.6100000000000E+00  9.8472211372000E-02  8.7835518403000E-01
   163  1.6200000000000E+00  8.9818100986000E-02  8.4443967492000E-01
   164  1.6300000000000E+00  8.1617299609000E-02  8.1007963850000E-01
   165  1.6400000000000E+00  7.3870705417000E-02  7.7540786748000E-01
   166  1.6500000000000E+00  6.6573089607000E-02  7.4054540757000E-01
   167  1.6600000000000E+00  5.9721291151000E-02  7.0562379128000E-01
   168  1.6700000000000E+00  5.3307021092000E-02  6.7075850159000E-01
   169  1.6800000000000E+00  4.7323473620000E-02  6.3607681682000E-01
   170  1.6900000000000E+00  4.1759739437000E-02  6.0168580561000E-01
   171  1.7000000000000E+00  3.6605927874000E-02  5.6770614601000E-01
   172  1.7100000000000E+00  3.1848999766000E-02  5.3423369352000E-01
   173  1.7200000000000E+00  2.7476507890000E-02  5.0138063076000E-01
   174  1.7300000000000E+00  2.3473828796000E-02  4.6922922372000E-01
   175  1.7400000000000E+00  1.9826425145000E-02  4.3788099777000E-01
   176  1.7500000000000E+00  1.6518656461000E-02  4.0740383835000E-01
   177  1.7600000000000E+00  1.3534383797000E-02  3.7788491923000E-01
   178  1.7700000000000E+00  1.0857406374000E-02  3.4937874723000E-01
   179  1.7800000000000E+00  8.4705775150000E-03  3.2195528778000E-01
   180  1.7900000000000E+00  6.3574313026000E-03  2.9565613062000E-01
   181  1.8000000000000E+00  4.5004628932000E-03  2.7053196278000E-01
   182  1.8100000000000E+00  2.8831302627000E-03  2.4661230619000E-01
   183  1.8200000000000E+00  1.4882359565000E-03  2.2392715696000E-01
   184  1.8300000000000E+00  2.9925708317000E-04  2.0249495185000E-01
   185  1.8400000000000E+00 -7.0004857861000E-04  1.8232452834000E-01
   186  1.8500000000000E+00 -1.5261528997000E-03  1.6342404004000E-01
   187  1.8600000000000E+00 -2.1937614305000E-03  1.4578193693000E-01
   188  1.8700000000000E+00 -2.7192778275000E-03  1.2939639884000E-01
   189  1.8800000000000E+00 -3.1155727628000E-03  1.1423852517000E-01
   190  1.8900000000000E+00 -3.3984509468000E-03  1.0029371168000E-01
   191  1.9000000000000E+00 -3.5794820585000E-03  8.7522644487000E-02
   192  1.9100000000000E+00 -3.6725588459000E-03  7.5893667189000E-02
   193  1.9200000000000E+00 -3.6889285024000E-03  6.5363032653000E-02
   194  1.9300000000000E+00 -3.6398916318000E-03  5.5883879569000E-02
   195  1.9400000000000E+00 -3.5365587066000E-03  4.7407820647000E-02
   196  1.9500000000000E+00 -3.3874266906000E-03  3.9878121548000E-02
   197  1.9600000000000E+00 -3.2034849141000E-03  3.3240274363000E-02
   198  1.9700000000000E+00 -2.9910164738000E-03  2.7433952555000E-02
   199  1.9800000000000E+00 -2.7591706460000E-03  2.2397687083000E-02
   200  1.9900000000000E+00 -2.5139409503000E-03  1.8071159834000E-02
   201  2.0000000000000E+00 -2.2616611679000E-03  1.4391232254000E-02
   202  2.0100000000000E+00 -2.0085137684000E-03  1.1295087153000E-02
   203  2.0200000000000E+00 -1.7581687899000E-03  8.7258435010000E-03
   204  2.0300000000000E+00 -1.5166300906000E-03  6.6158657870000E-03
   205  2.0400000000000E+00 -1.2861012969000E-03  4.9168520266000E-03
   206  2.0500000000000E+00 -1.0705501180000E-03  3.5682483542000E-03
   207  2.0600000000000E+00 -8.7259617302000E-04  2.5200865537000E-03
   208  2.0700000000000E+00 -6.9386191567000E-04  1.7300150929000E-03
   209  2.0800000000000E+00 -5.3748490509000E-04  1.1432173008000E-03
   210  2.0900000000000E+00 -4.0282466685000E-04  7.3223573451000E-04
   211  2.1000000000000E+00 -2.9154130835000E-04  4.5297539703000E-04
   212  2.1100000000000E+00 -2.0286010091000E-04  2.7598335383000E-04
   213  2.1200000000000E+00 -1.3497514151000E-04  1.7742350583000E-04
   214  2.1300000000000E+00 -8.7771645394000E-05  1.2098502444000E-04
   215  2.1400000000000E+00 -5.6867000982000E-05  1.0114274290000E-04
   216  2.1500000000000E+00 -4.0482650293000E-05  9.7990698010000E-05
   217  2.1600000000000E+00 -3.4159541067000E-05  9.8975070858000E-05
   218  2.1700000000000E+00 -3.1403921217000E-05  9.7004922767000E-05
   219  2.1800000000000E+00 -1.9039722304000E-05  6.1911057720000E-05
   220  2.1900000000000E+00 -6.6003305192000E-06  2.2263241246000E-05
   221  2.2000000000000E+00  1.2016131562000E-06 -3.7137100485000E-06
   222  2.2100000000000E+00  2.0187654328000E-06 -6.2392038859000E-06
   223  2.2200000000000E+00  5.5992573015000E-07 -1.7305085250000E-06
   224  2.2300000000000E+00  0.0000000000000E+00  0.0000000000000E+00
   225  2.2400000000000E+00  0.0000000000000E+00  0.0000000000000E+00
   226  2.2500000000000E+00  0.0000000000000E+00  0.0000000000000E+00
   227  2.2600000000000E+00  0.0000000000000E+00  0.0000000000000E+00
   228  2.2700000000000E+00  0.0000000000000E+00  0.0000000000000E+00
   229  2.2800000000000E+00  0.0000000000000E+00  0.0000000000000E+00
   230  2.2900000000000E+00  0.0000000000000E+00  0.0000000000000E+00
   231  2.3000000000000E+00  0.0000000000000E+00  0.0000000000000E+00
   232  2.3100000000000E+00  0.0000000000000E+00  0.0000000000000E+00
   233  2.3200000000000E+00  0.0000000000000E+00  0.0000000000000E+00
   234  2.3300000000000E+00  0.0000000000000E+00  0.0000000000000E+00
   235  2.3400000000000E+00  0.0000000000000E+00  0.0000000000000E+00
   236  2.3500000000000E+00  0.0000000000000E+00  0.0000000000000E+00
   237  2.3600000000000E+00  0.0000000000000E+00  0.0000000000000E+00
   238  2.3700000000000E+00  0.0000000000000E+00  0.0000000000000E+00
   239  2.3800000000000E+00  0.0000000000000E+00  0.0000000000000E+00
   240  2.3900000000000E+00  0.0000000000000E+00  0.0000000000000E+00
   241  2.4000000000000E+00  0.0000000000000E+00  0.0000000000000E+00
   242  2.4100000000000E+00  0.0000000000000E+00  0.0000000000000E+00
   243  2.4200000000000E+00  0.0000000000000E+00  0.0000000000000E+00
   244  2.4300000000000E+00  0.0000000000000E+00  0.0000000000000E+00
   245  2.4400000000000E+00  0.0000000000000E+00  0.0000000000000E+00
   246  2.4500000000000E+00  0.0000000000000E+00  0.0000000000000E+00
   247  2.4600000000000E+00  0.0000000000000E+00  0.0000000000000E+00
   248  2.4700000000000E+00  0.0000000000000E+00  0.0000000000000E+00
   249  2.4800000000000E+00  0.0000000000000E+00  0.0000000000000E+00
   250  2.4900000000000E+00  0.0000000000000E+00  0.0000000000000E+00
   251  2.5000000000000E+00  0.0000000000000E+00  0.0000000000000E+00
   252  2.5100000000000E+00  0.0000000000000E+00  0.0000000000000E+00
   253  2.5200000000000E+00  0.0000000000000E+00  0.0000000000000E+00
   254  2.5300000000000E+00  0.0000000000000E+00  0.0000000000000E+00
   255  2.5400000000000E+00  0.0000000000000E+00  0.0000000000000E+00
   256  2.5500000000000E+00  0.0000000000000E+00  0.0000000000000E+00
   257  2.5600000000000E+00  0.0000000000000E+00  0.0000000000000E+00
   258  2.5700000000000E+00  0.0000000000000E+00  0.0000000000000E+00
   259  2.5800000000000E+00  0.0000000000000E+00  0.0000000000000E+00
   260  2.5900000000000E+00  0.0000000000000E+00  0.0000000000000E+00
   261  2.6000000000000E+00  0.0000000000000E+00  0.0000000000000E+00
   262  2.6100000000000E+00  0.0000000000000E+00  0.0000000000000E+00
   263  2.6200000000000E+00  0.0000000000000E+00  0.0000000000000E+00
   264  2.6300000000000E+00  0.0000000000000E+00  0.0000000000000E+00
   265  2.6400000000000E+00  0.0000000000000E+00  0.0000000000000E+00
   266  2.6500000000000E+00  0.0000000000000E+00  0.0000000000000E+00
   267  2.6600000000000E+00  0.0000000000000E+00  0.0000000000000E+00
   268  2.6700000000000E+00  0.0000000000000E+00  0.0000000000000E+00
   269  2.6800000000000E+00  0.0000000000000E+00  0.0000000000000E+00
   270  2.6900000000000E+00  0.0000000000000E+00  0.0000000000000E+00
   271  2.7000000000000E+00  0.0000000000000E+00  0.0000000000000E+00
   272  2.7100000000000E+00  0.0000000000000E+00  0.0000000000000E+00
   273  2.7200000000000E+00  0.0000000000000E+00  0.0000000000000E+00
   274  2.7300000000000E+00  0.0000000000000E+00  0.0000000000000E+00
   275  2.7400000000000E+00  0.0000000000000E+00  0.0000000000000E+00
   276  2.7500000000000E+00  0.0000000000000E+00  0.0000000000000E+00
   277  2.7600000000000E+00  0.0000000000000E+00  0.0000000000000E+00
   278  2.7700000000000E+00  0.0000000000000E+00  0.0000000000000E+00
   279  2.7800000000000E+00  0.0000000000000E+00  0.0000000000000E+00
   280  2.7900000000000E+00  0.0000000000000E+00  0.0000000000000E+00
   281  2.8000000000000E+00  0.0000000000000E+00  0.0000000000000E+00
   282  2.8100000000000E+00  0.0000000000000E+00  0.0000000000000E+00
   283  2.8200000000000E+00  0.0000000000000E+00  0.0000000000000E+00
   284  2.8300000000000E+00  0.0000000000000E+00  0.0000000000000E+00
   285  2.8400000000000E+00  0.0000000000000E+00  0.0000000000000E+00
   286  2.8500000000000E+00  0.0000000000000E+00  0.0000000000000E+00
   287  2.8600000000000E+00  0.0000000000000E+00  0.0000000000000E+00
   288  2.8700000000000E+00  0.0000000000000E+00  0.0000000000000E+00
   289  2.8800000000000E+00  0.0000000000000E+00  0.0000000000000E+00
   290  2.8900000000000E+00  0.0000000000000E+00  0.0000000000000E+00
   291  2.9000000000000E+00  0.0000000000000E+00  0.0000000000000E+00
   292  2.9100000000000E+00  0.0000000000000E+00  0.0000000000000E+00
   293  2.9200000000000E+00  0.0000000000000E+00  0.0000000000000E+00
   294  2.9300000000000E+00  0.0000000000000E+00  0.0000000000000E+00
   295  2.9400000000000E+00  0.0000000000000E+00  0.0000000000000E+00
   296  2.9500000000000E+00  0.0000000000000E+00  0.0000000000000E+00
   297  2.9600000000000E+00  0.0000000000000E+00  0.0000000000000E+00
   298  2.9700000000000E+00  0.0000000000000E+00  0.0000000000000E+00
   299  2.9800000000000E+00  0.0000000000000E+00  0.0000000000000E+00
   300  2.9900000000000E+00  0.0000000000000E+00  0.0000000000000E+00
   301  3.0000000000000E+00  0.0000000000000E+00  0.0000000000000E+00
   302  3.0100000000000E+00  0.0000000000000E+00  0.0000000000000E+00
   303  3.0200000000000E+00  0.0000000000000E+00  0.0000000000000E+00
   304  3.0300000000000E+00  0.0000000000000E+00  0.0000000000000E+00
   305  3.0400000000000E+00  0.0000000000000E+00  0.0000000000000E+00
   306  3.0500000000000E+00  0.0000000000000E+00  0.0000000000000E+00
   307  3.0600000000000E+00  0.0000000000000E+00  0.0000000000000E+00
   308  3.0700000000000E+00  0.0000000000000E+00  0.0000000000000E+00
   309  3.0800000000000E+00  0.0000000000000E+00  0.0000000000000E+00
   310  3.0900000000000E+00  0.0000000000000E+00  0.0000000000000E+00
   311  3.1000000000000E+00  0.0000000000000E+00  0.0000000000000E+00
   312  3.1100000000000E+00  0.0000000000000E+00  0.0000000000000E+00
   313  3.1200000000000E+00  0.0000000000000E+00  0.0000000000000E+00
   314  3.1300000000000E+00  0.0000000000000E+00  0.0000000000000E+00
   315  3.1400000000000E+00  0.0000000000000E+00  0.0000000000000E+00
   316  3.1500000000000E+00  0.0000000000000E+00  0.0000000000000E+00
   317  3.1600000000000E+00  0.0000000000000E+00  0.0000000000000E+00
   318  3.1700000000000E+00  0.0000000000000E+00  0.0000000000000E+00
   319  3.1800000000000E+00  0.0000000000000E+00  0.0000000000000E+00
   320  3.1900000000000E+00  0.0000000000000E+00  0.0000000000000E+00
   321  3.2000000000000E+00  0.0000000000000E+00  0.0000000000000E+00
   322  3.2100000000000E+00  0.0000000000000E+00  0.0000000000000E+00
   323  3.2200000000000E+00  0.0000000000000E+00  0.0000000000000E+00
   324  3.2300000000000E+00  0.0000000000000E+00  0.0000000000000E+00
   325  3.2400000000000E+00  0.0000000000000E+00  0.0000000000000E+00
   326  3.2500000000000E+00  0.0000000000000E+00  0.0000000000000E+00
   327  3.2600000000000E+00  0.0000000000000E+00  0.0000000000000E+00
   328  3.2700000000000E+00  0.0000000000000E+00  0.0000000000000E+00
   329  3.2800000000000E+00  0.0000000000000E+00  0.0000000000000E+00
   330  3.2900000000000E+00  0.0000000000000E+00  0.0000000000000E+00
   331  3.3000000000000E+00  0.0000000000000E+00  0.0000000000000E+00
   332  3.3100000000000E+00  0.0000000000000E+00  0.0000000000000E+00
   333  3.3200000000000E+00  0.0000000000000E+00  0.0000000000000E+00
   334  3.3300000000000E+00  0.0000000000000E+00  0.0000000000000E+00
   335  3.3400000000000E+00  0.0000000000000E+00  0.0000000000000E+00
   336  3.3500000000000E+00  0.0000000000000E+00  0.0000000000000E+00
   337  3.3600000000000E+00  0.0000000000000E+00  0.0000000000000E+00
   338  3.3700000000000E+00  0.0000000000000E+00  0.0000000000000E+00
   339  3.3800000000000E+00  0.0000000000000E+00  0.0000000000000E+00
   340  3.3900000000000E+00  0.0000000000000E+00  0.0000000000000E+00
   341  3.4000000000000E+00  0.0000000000000E+00  0.0000000000000E+00
   342  3.4100000000000E+00  0.0000000000000E+00  0.0000000000000E+00
   343  3.4200000000000E+00  0.0000000000000E+00  0.0000000000000E+00
   344  3.4300000000000E+00  0.0000000000000E+00  0.0000000000000E+00
   345  3.4400000000000E+00  0.0000000000000E+00  0.0000000000000E+00
   346  3.4500000000000E+00  0.0000000000000E+00  0.0000000000000E+00
   347  3.4600000000000E+00  0.0000000000000E+00  0.0000000000000E+00
   348  3.4700000000000E+00  0.0000000000000E+00  0.0000000000000E+00
   349  3.4800000000000E+00  0.0000000000000E+00  0.0000000000000E+00
   350  3.4900000000000E+00  0.0000000000000E+00  0.0000000000000E+00
   351  3.5000000000000E+00  0.0000000000000E+00  0.0000000000000E+00
   352  3.5100000000000E+00  0.0000000000000E+00  0.0000000000000E+00
   353  3.5200000000000E+00  0.0000000000000E+00  0.0000000000000E+00
   354  3.5300000000000E+00  0.0000000000000E+00  0.0000000000000E+00
   355  3.5400000000000E+00  0.0000000000000E+00  0.0000000000000E+00
   356  3.5500000000000E+00  0.0000000000000E+00  0.0000000000000E+00
   357  3.5600000000000E+00  0.0000000000000E+00  0.0000000000000E+00
   358  3.5700000000000E+00  0.0000000000000E+00  0.0000000000000E+00
   359  3.5800000000000E+00  0.0000000000000E+00  0.0000000000000E+00
   360  3.5900000000000E+00  0.0000000000000E+00  0.0000000000000E+00
   361  3.6000000000000E+00  0.0000000000000E+00  0.0000000000000E+00
   362  3.6100000000000E+00  0.0000000000000E+00  0.0000000000000E+00
   363  3.6200000000000E+00  0.0000000000000E+00  0.0000000000000E+00
   364  3.6300000000000E+00  0.0000000000000E+00  0.0000000000000E+00
   365  3.6400000000000E+00  0.0000000000000E+00  0.0000000000000E+00
   366  3.6500000000000E+00  0.0000000000000E+00  0.0000000000000E+00
   367  3.6600000000000E+00  0.0000000000000E+00  0.0000000000000E+00
   368  3.6700000000000E+00  0.0000000000000E+00  0.0000000000000E+00
   369  3.6800000000000E+00  0.0000000000000E+00  0.0000000000000E+00
   370  3.6900000000000E+00  0.0000000000000E+00  0.0000000000000E+00
   371  3.7000000000000E+00  0.0000000000000E+00  0.0000000000000E+00
   372  3.7100000000000E+00  0.0000000000000E+00  0.0000000000000E+00
   373  3.7200000000000E+00  0.0000000000000E+00  0.0000000000000E+00
   374  3.7300000000000E+00  0.0000000000000E+00  0.0000000000000E+00
   375  3.7400000000000E+00  0.0000000000000E+00  0.0000000000000E+00
   376  3.7500000000000E+00  0.0000000000000E+00  0.0000000000000E+00
   377  3.7600000000000E+00  0.0000000000000E+00  0.0000000000000E+00
   378  3.7700000000000E+00  0.0000000000000E+00  0.0000000000000E+00
   379  3.7800000000000E+00  0.0000000000000E+00  0.0000000000000E+00
   380  3.7900000000000E+00  0.0000000000000E+00  0.0000000000000E+00
   381  3.8000000000000E+00  0.0000000000000E+00  0.0000000000000E+00
   382  3.8100000000000E+00  0.0000000000000E+00  0.0000000000000E+00
   383  3.8200000000000E+00  0.0000000000000E+00  0.0000000000000E+00
   384  3.8300000000000E+00  0.0000000000000E+00  0.0000000000000E+00
   385  3.8400000000000E+00  0.0000000000000E+00  0.0000000000000E+00
   386  3.8500000000000E+00  0.0000000000000E+00  0.0000000000000E+00
   387  3.8600000000000E+00  0.0000000000000E+00  0.0000000000000E+00
   388  3.8700000000000E+00  0.0000000000000E+00  0.0000000000000E+00
   389  3.8800000000000E+00  0.0000000000000E+00  0.0000000000000E+00
   390  3.8900000000000E+00  0.0000000000000E+00  0.0000000000000E+00
   391  3.9000000000000E+00  0.0000000000000E+00  0.0000000000000E+00
   392  3.9100000000000E+00  0.0000000000000E+00  0.0000000000000E+00
   393  3.9200000000000E+00  0.0000000000000E+00  0.0000000000000E+00
   394  3.9300000000000E+00  0.0000000000000E+00  0.0000000000000E+00
   395  3.9400000000000E+00  0.0000000000000E+00  0.0000000000000E+00
   396  3.9500000000000E+00  0.0000000000000E+00  0.0000000000000E+00
   397  3.9600000000000E+00  0.0000000000000E+00  0.0000000000000E+00
   398  3.9700000000000E+00  0.0000000000000E+00  0.0000000000000E+00
   399  3.9800000000000E+00  0.0000000000000E+00  0.0000000000000E+00
   400  3.9900000000000E+00  0.0000000000000E+00  0.0000000000000E+00
   401  4.0000000000000E+00  0.0000000000000E+00  0.0000000000000E+00
   402  4.0100000000000E+00  0.0000000000000E+00  0.0000000000000E+00
   403  4.0200000000000E+00  0.0000000000000E+00  0.0000000000000E+00
   404  4.0300000000000E+00  0.0000000000000E+00  0.0000000000000E+00
   405  4.0400000000000E+00  0.0000000000000E+00  0.0000000000000E+00
   406  4.0500000000000E+00  0.0000000000000E+00  0.0000000000000E+00
   407  4.0600000000000E+00  0.0000000000000E+00  0.0000000000000E+00
   408  4.0700000000000E+00  0.0000000000000E+00  0.0000000000000E+00
   409  4.0800000000000E+00  0.0000000000000E+00  0.0000000000000E+00
   410  4.0900000000000E+00  0.0000000000000E+00  0.0000000000000E+00
   411  4.1000000000000E+00  0.0000000000000E+00  0.0000000000000E+00
   412  4.1100000000000E+00  0.0000000000000E+00  0.0000000000000E+00
   413  4.1200000000000E+00  0.0000000000000E+00  0.0000000000000E+00
   414  4.1300000000000E+00  0.0000000000000E+00  0.0000000000000E+00
   415  4.1400000000000E+00  0.0000000000000E+00  0.0000000000000E+00
   416  4.1500000000000E+00  0.0000000000000E+00  0.0000000000000E+00
   417  4.1600000000000E+00  0.0000000000000E+00  0.0000000000000E+00
   418  4.1700000000000E+00  0.0000000000000E+00  0.0000000000000E+00
   419  4.1800000000000E+00  0.0000000000000E+00  0.0000000000000E+00
   420  4.1900000000000E+00  0.0000000000000E+00  0.0000000000000E+00
   421  4.2000000000000E+00  0.0000000000000E+00  0.0000000000000E+00
   422  4.2100000000000E+00  0.0000000000000E+00  0.0000000000000E+00
   423  4.2200000000000E+00  0.0000000000000E+00  0.0000000000000E+00