Sc   ONCVPSP-2.1.1   r_core=    2.91081 2.94574 2.37654
    21.0000   11.0000   150105   zatom,zion,pspd
    8   11   2   4   600   0   pspcod,pspxc,lmax,lloc,mmax,r2well
    5.99000000   0.00000000   0.00000000   rchrg fchrg qchrg
    2   2   2   0   0   nproj
    1   1   extension_switch
       0                         1.0657484170000E+00 -3.3756327883500E-01
     1  0.0000000000000E+00  0.0000000000000E+00  0.0000000000000E+00
     2  1.0000000000000E-02  3.5897994770000E-02 -2.1316463798000E-03
     3  2.0000000000000E-02  7.1767217407000E-02 -4.2788126430000E-03
     4  3.0000000000000E-02  1.0757890066000E-01 -6.4569921065000E-03
     5  4.0000000000000E-02  1.4330428709000E-01 -8.6816249765000E-03
     6  5.0000000000000E-02  1.7891463423000E-01 -1.0968071849000E-02
     7  6.0000000000000E-02  2.1438121987000E-01 -1.3331587275000E-02
     8  7.0000000000000E-02  2.4967534768000E-01 -1.5787293419000E-02
     9  8.0000000000000E-02  2.8476835328000E-01 -1.8350153825000E-02
    10  9.0000000000000E-02  3.1963161066000E-01 -2.1034947324000E-02
    11  1.0000000000000E-01  3.5423653913000E-01 -2.3856242096000E-02
    12  1.1000000000000E-01  3.8855461092000E-01 -2.6828369919000E-02
    13  1.2000000000000E-01  4.2255735939000E-01 -2.9965400627000E-02
    14  1.3000000000000E-01  4.5621638795000E-01 -3.3281116807000E-02
    15  1.4000000000000E-01  4.8950337974000E-01 -3.6788988752000E-02
    16  1.5000000000000E-01  5.2239010824000E-01 -4.0502149711000E-02
    17  1.6000000000000E-01  5.5484844868000E-01 -4.4433371451000E-02
    18  1.7000000000000E-01  5.8685039041000E-01 -4.8595040172000E-02
    19  1.8000000000000E-01  6.1836805030000E-01 -5.2999132804000E-02
    20  1.9000000000000E-01  6.4937368720000E-01 -5.7657193691000E-02
    21  2.0000000000000E-01  6.7983971737000E-01 -6.2580311758000E-02
    22  2.1000000000000E-01  7.0973873117000E-01 -6.7779098104000E-02
    23  2.2000000000000E-01  7.3904351081000E-01 -7.3263664150000E-02
    24  2.3000000000000E-01  7.6772704930000E-01 -7.9043600292000E-02
    25  2.4000000000000E-01  7.9576257061000E-01 -8.5127955172000E-02
    26  2.5000000000000E-01  8.2312355106000E-01 -9.1525215525000E-02
    27  2.6000000000000E-01  8.4978374192000E-01 -9.8243286720000E-02
    28  2.7000000000000E-01  8.7571719325000E-01 -1.0528947393000E-01
    29  2.8000000000000E-01  9.0089827900000E-01 -1.1267046416000E-01
    30  2.9000000000000E-01  9.2530172333000E-01 -1.2039230887000E-01
    31  3.0000000000000E-01  9.4890262818000E-01 -1.2846040757000E-01
    32  3.1000000000000E-01  9.7167650203000E-01 -1.3687949213000E-01
    33  3.2000000000000E-01  9.9359928986000E-01 -1.4565361210000E-01
    34  3.3000000000000E-01  1.0146474041000E+00 -1.5478612097000E-01
    35  3.4000000000000E-01  1.0347977574000E+00 -1.6427966301000E-01
    36  3.5000000000000E-01  1.0540277950000E+00 -1.7413616208000E-01
    37  3.6000000000000E-01  1.0723155305000E+00 -1.8435681002000E-01
    38  3.7000000000000E-01  1.0896395796000E+00 -1.9494205770000E-01
    39  3.8000000000000E-01  1.1059791975000E+00 -2.0589160621000E-01
    40  3.9000000000000E-01  1.1213143157000E+00 -2.1720439921000E-01
    41  4.0000000000000E-01  1.1356255802000E+00 -2.2887861709000E-01
    42  4.1000000000000E-01  1.1488943893000E+00 -2.4091167189000E-01
    43  4.2000000000000E-01  1.1611029338000E+00 -2.5330020364000E-01
    44  4.3000000000000E-01  1.1722342362000E+00 -2.6604007792000E-01
    45  4.4000000000000E-01  1.1822721911000E+00 -2.7912638486000E-01
    46  4.5000000000000E-01  1.1912016059000E+00 -2.9255343946000E-01
    47  4.6000000000000E-01  1.1990082412000E+00 -3.0631478324000E-01
    48  4.7000000000000E-01  1.2056788522000E+00 -3.2040318746000E-01
    49  4.8000000000000E-01  1.2112012283000E+00 -3.3481065764000E-01
    50  4.9000000000000E-01  1.2155642350000E+00 -3.4952843948000E-01
    51  5.0000000000000E-01  1.2187578557000E+00 -3.6454702633000E-01
    52  5.1000000000000E-01  1.2207732291000E+00 -3.7985616835000E-01
    53  5.2000000000000E-01  1.2216026865000E+00 -3.9544488264000E-01
    54  5.3000000000000E-01  1.2212398008000E+00 -4.1130146558000E-01
    55  5.4000000000000E-01  1.2196794115000E+00 -4.2741350588000E-01
    56  5.5000000000000E-01  1.2169176706000E+00 -4.4376789972000E-01
    57  5.6000000000000E-01  1.2129520766000E+00 -4.6035086748000E-01
    58  5.7000000000000E-01  1.2077815052000E+00 -4.7714797076000E-01
    59  5.8000000000000E-01  1.2014062501000E+00 -4.9414413329000E-01
    60  5.9000000000000E-01  1.1938280472000E+00 -5.1132366024000E-01
    61  6.0000000000000E-01  1.1850501080000E+00 -5.2867026127000E-01
    62  6.1000000000000E-01  1.1750771529000E+00 -5.4616707598000E-01
    63  6.2000000000000E-01  1.1639154190000E+00 -5.6379669282000E-01
    64  6.3000000000000E-01  1.1515727131000E+00 -5.8154118606000E-01
    65  6.4000000000000E-01  1.1380584088000E+00 -5.9938213478000E-01
    66  6.5000000000000E-01  1.1233834675000E+00 -6.1730065106000E-01
    67  6.6000000000000E-01  1.1075604753000E+00 -6.3527742150000E-01
    68  6.7000000000000E-01  1.0906036357000E+00 -6.5329272793000E-01
    69  6.8000000000000E-01  1.0725287841000E+00 -6.7132648097000E-01
    70  6.9000000000000E-01  1.0533534016000E+00 -6.8935825729000E-01
    71  7.0000000000000E-01  1.0330966215000E+00 -7.0736733761000E-01
    72  7.1000000000000E-01  1.0117792228000E+00 -7.2533273530000E-01
    73  7.2000000000000E-01  9.8942363119000E-01 -7.4323323557000E-01
    74  7.3000000000000E-01  9.6605391336000E-01 -7.6104743126000E-01
    75  7.4000000000000E-01  9.4169576922000E-01 -7.7875376249000E-01
    76  7.5000000000000E-01  9.1637652242000E-01 -7.9633056197000E-01
    77  7.6000000000000E-01  8.9012509774000E-01 -8.1375608468000E-01
    78  7.7000000000000E-01  8.6297200342000E-01 -8.3100855122000E-01
    79  7.8000000000000E-01  8.3494930715000E-01 -8.4806618818000E-01
    80  7.9000000000000E-01  8.0609060803000E-01 -8.6490726877000E-01
    81  8.0000000000000E-01  7.7643100464000E-01 -8.8151015368000E-01
    82  8.1000000000000E-01  7.4600705907000E-01 -8.9785333206000E-01
    83  8.2000000000000E-01  7.1485675694000E-01 -9.1391546250000E-01
    84  8.3000000000000E-01  6.8301946349000E-01 -9.2967541404000E-01
    85  8.4000000000000E-01  6.5053587559000E-01 -9.4511230689000E-01
    86  8.5000000000000E-01  6.1744796984000E-01 -9.6020555303000E-01
    87  8.6000000000000E-01  5.8379894670000E-01 -9.7493489633000E-01
    88  8.7000000000000E-01  5.4963317080000E-01 -9.8928045232000E-01
    89  8.8000000000000E-01  5.1499610737000E-01 -1.0032227473000E+00
    90  8.9000000000000E-01  4.7993425491000E-01 -1.0167427572000E+00
    91  9.0000000000000E-01  4.4449507429000E-01 -1.0298219446000E+00
    92  9.1000000000000E-01  4.0872691418000E-01 -1.0424422966000E+00
    93  9.2000000000000E-01  3.7267893317000E-01 -1.0545863602000E+00
    94  9.3000000000000E-01  3.3640101853000E-01 -1.0662372773000E+00
    95  9.4000000000000E-01  2.9994370199000E-01 -1.0773788185000E+00
    96  9.5000000000000E-01  2.6335807249000E-01 -1.0879954155000E+00
    97  9.6000000000000E-01  2.2669568643000E-01 -1.0980721923000E+00
    98  9.7000000000000E-01  1.9000850922000E-01 -1.1075949712000E+00
    99  9.8000000000000E-01  1.5334872906000E-01 -1.1165503685000E+00
   100  9.9000000000000E-01  1.1676873450000E-01 -1.1249257622000E+00
   101  1.0000000000000E+00  8.0320998009000E-02 -1.1327093314000E+00
   102  1.0100000000000E+00  4.4057973302000E-02 -1.1398900814000E+00
   103  1.0200000000000E+00  8.0319939580000E-03 -1.1464578643000E+00
   104  1.0300000000000E+00 -2.7704784231000E-02 -1.1524033775000E+00
   105  1.0400000000000E+00 -6.3100566847000E-02 -1.1577182247000E+00
   106  1.0500000000000E+00 -9.8104058506000E-02 -1.1623949392000E+00
   107  1.0600000000000E+00 -1.3266446556000E-01 -1.1664269489000E+00
   108  1.0700000000000E+00 -1.6673163883000E-01 -1.1698086080000E+00
   109  1.0800000000000E+00 -2.0025609209000E-01 -1.1725351756000E+00
   110  1.0900000000000E+00 -2.3318927844000E-01 -1.1746028935000E+00
   111  1.1000000000000E+00 -2.6548371217000E-01 -1.1760089856000E+00
   112  1.1100000000000E+00 -2.9709290361000E-01 -1.1767516020000E+00
   113  1.1200000000000E+00 -3.2797145726000E-01 -1.1768298279000E+00
   114  1.1300000000000E+00 -3.5807518954000E-01 -1.1762436965000E+00
   115  1.1400000000000E+00 -3.8736160300000E-01 -1.1749942808000E+00
   116  1.1500000000000E+00 -4.1578950640000E-01 -1.1730835519000E+00
   117  1.1600000000000E+00 -4.4331910101000E-01 -1.1705143864000E+00
   118  1.1700000000000E+00 -4.6991235170000E-01 -1.1672906295000E+00
   119  1.1800000000000E+00 -4.9553321984000E-01 -1.1634170952000E+00
   120  1.1900000000000E+00 -5.2014730573000E-01 -1.1588994618000E+00
   121  1.2000000000000E+00 -5.4372171001000E-01 -1.1537442440000E+00
   122  1.2100000000000E+00 -5.6622629954000E-01 -1.1479589639000E+00
   123  1.2200000000000E+00 -5.8763268725000E-01 -1.1415519384000E+00
   124  1.2300000000000E+00 -6.0791422000000E-01 -1.1345322816000E+00
   125  1.2400000000000E+00 -6.2704696052000E-01 -1.1269099936000E+00
   126  1.2500000000000E+00 -6.4500926020000E-01 -1.1186958526000E+00
   127  1.2600000000000E+00 -6.6178123796000E-01 -1.1099013625000E+00
   128  1.2700000000000E+00 -6.7734581081000E-01 -1.1005388108000E+00
   129  1.2800000000000E+00 -6.9168848860000E-01 -1.0906211847000E+00
   130  1.2900000000000E+00 -7.0479652549000E-01 -1.0801621337000E+00
   131  1.3000000000000E+00 -7.1666024944000E-01 -1.0691759818000E+00
   132  1.3100000000000E+00 -7.2727257290000E-01 -1.0576776417000E+00
   133  1.3200000000000E+00 -7.3662809452000E-01 -1.0456826420000E+00
   134  1.3300000000000E+00 -7.4472496275000E-01 -1.0332070276000E+00
   135  1.3400000000000E+00 -7.5156349191000E-01 -1.0202673428000E+00
   136  1.3500000000000E+00 -7.5714588312000E-01 -1.0068806973000E+00
   137  1.3600000000000E+00 -7.6147812504000E-01 -9.9306449544000E-01
   138  1.3700000000000E+00 -7.6456770684000E-01 -9.7883665147000E-01
   139  1.3800000000000E+00 -7.6642493451000E-01 -9.6421543271000E-01
   140  1.3900000000000E+00 -7.6706301480000E-01 -9.4921930480000E-01
   141  1.4000000000000E+00 -7.6649657257000E-01 -9.3386727778000E-01
   142  1.4100000000000E+00 -7.6474386316000E-01 -9.1817829539000E-01
   143  1.4200000000000E+00 -7.6182466229000E-01 -9.0217171134000E-01
   144  1.4300000000000E+00 -7.5776124541000E-01 -8.8586704902000E-01
   145  1.4400000000000E+00 -7.5257852467000E-01 -8.6928372562000E-01
   146  1.4500000000000E+00 -7.4630272843000E-01 -8.5244173918000E-01
   147  1.4600000000000E+00 -7.3896328940000E-01 -8.3536050947000E-01
   148  1.4700000000000E+00 -7.3059079035000E-01 -8.1806001153000E-01
   149  1.4800000000000E+00 -7.2121828715000E-01 -8.0055989192000E-01
   150  1.4900000000000E+00 -7.1088049149000E-01 -7.8287979609000E-01
   151  1.5000000000000E+00 -6.9961389277000E-01 -7.6503950494000E-01
   152  1.5100000000000E+00 -6.8745677936000E-01 -7.4705816672000E-01
   153  1.5200000000000E+00 -6.7444887990000E-01 -7.2895557771000E-01
   154  1.5300000000000E+00 -6.6063147594000E-01 -7.1075035577000E-01
   155  1.5400000000000E+00 -6.4604723405000E-01 -6.9246189499000E-01
   156  1.5500000000000E+00 -6.3073994346000E-01 -6.7410849016000E-01
   157  1.5600000000000E+00 -6.1475467538000E-01 -6.5570883804000E-01
   158  1.5700000000000E+00 -5.9813738642000E-01 -6.3728089102000E-01
   159  1.5800000000000E+00 -5.8093492868000E-01 -6.1884252078000E-01
   160  1.5900000000000E+00 -5.6319505987000E-01 -6.0041124294000E-01
   161  1.6000000000000E+00 -5.4496578103000E-01 -5.8200403266000E-01
   162  1.6100000000000E+00 -5.2629624086000E-01 -5.6363787200000E-01
   163  1.6200000000000E+00 -5.0723496974000E-01 -5.4532879863000E-01
   164  1.6300000000000E+00 -4.8783204958000E-01 -5.2709316758000E-01
   165  1.6400000000000E+00 -4.6813594559000E-01 -5.0894606509000E-01
   166  1.6500000000000E+00 -4.4819716787000E-01 -4.9090313406000E-01
   167  1.6600000000000E+00 -4.2806355711000E-01 -4.7297851956000E-01
   168  1.6700000000000E+00 -4.0778550146000E-01 -4.5518707947000E-01
   169  1.6800000000000E+00 -3.8740970254000E-01 -4.3754205007000E-01
   170  1.6900000000000E+00 -3.6698583292000E-01 -4.2005744646000E-01
   171  1.7000000000000E+00 -3.4655899595000E-01 -4.0274564891000E-01
   172  1.7100000000000E+00 -3.2617751166000E-01 -3.8561978965000E-01
   173  1.7200000000000E+00 -3.0588449317000E-01 -3.6869146391000E-01
   174  1.7300000000000E+00 -2.8572622665000E-01 -3.5197290165000E-01
   175  1.7400000000000E+00 -2.6574352228000E-01 -3.3547499895000E-01
   176  1.7500000000000E+00 -2.4597990587000E-01 -3.1920908872000E-01
   177  1.7600000000000E+00 -2.2647366116000E-01 -3.0318546374000E-01
   178  1.7700000000000E+00 -2.0726478452000E-01 -2.8741459529000E-01
   179  1.7800000000000E+00 -1.8838890276000E-01 -2.7190627159000E-01
   180  1.7900000000000E+00 -1.6988168127000E-01 -2.5667017524000E-01
   181  1.8000000000000E+00 -1.5177604551000E-01 -2.4171568241000E-01
   182  1.8100000000000E+00 -1.3410251851000E-01 -2.2705180612000E-01
   183  1.8200000000000E+00 -1.1689134320000E-01 -2.1268758665000E-01
   184  1.8300000000000E+00 -1.0016711894000E-01 -1.9863154090000E-01
   185  1.8400000000000E+00 -8.3957444813000E-02 -1.8489242446000E-01
   186  1.8500000000000E+00 -6.8280306223000E-02 -1.7147849079000E-01
   187  1.8600000000000E+00 -5.3160650214000E-02 -1.5839823297000E-01
   188  1.8700000000000E+00 -3.8610361554000E-02 -1.4565991319000E-01
   189  1.8800000000000E+00 -2.4648503021000E-02 -1.3327181304000E-01
   190  1.8900000000000E+00 -1.1283854425000E-02 -1.2124239795000E-01
   191  1.9000000000000E+00  1.4723105861000E-03 -1.0958006657000E-01
   192  1.9100000000000E+00  1.3613696668000E-02 -9.8293395613000E-02
   193  1.9200000000000E+00  2.5137654112000E-02 -8.7391362911000E-02
   194  1.9300000000000E+00  3.6040198175000E-02 -7.6882740988000E-02
   195  1.9400000000000E+00  4.6325176339000E-02 -6.6774535517000E-02
   196  1.9500000000000E+00  5.5991827082000E-02 -5.7076054702000E-02
   197  1.9600000000000E+00  6.5047095395000E-02 -4.7790995656000E-02
   198  1.9700000000000E+00  7.3494926543000E-02 -3.8925713575000E-02
   199  1.9800000000000E+00  8.1343102783000E-02 -3.0483329069000E-02
   200  1.9900000000000E+00  8.8600477697000E-02 -2.2466314357000E-02
   201  2.0000000000000E+00  9.5275828460000E-02 -1.4877394857000E-02
   202  2.0100000000000E+00  1.0138185854000E-01 -7.7154819733000E-03
   203  2.0200000000000E+00  1.0692928205000E-01 -9.8217603992000E-04
   204  2.0300000000000E+00  1.1193274150000E-01  5.3256979706000E-03
   205  2.0400000000000E+00  1.1640623205000E-01  1.1209773194000E-02
   206  2.0500000000000E+00  1.2036491425000E-01  1.6673360825000E-02
   207  2.0600000000000E+00  1.2382539344000E-01  2.1721858800000E-02
   208  2.0700000000000E+00  1.2680403327000E-01  2.6358798906000E-02
   209  2.0800000000000E+00  1.2931859143000E-01  3.0592290463000E-02
   210  2.0900000000000E+00  1.3138714075000E-01  3.4428481129000E-02
   211  2.1000000000000E+00  1.3302794514000E-01  3.7875657203000E-02
   212  2.1100000000000E+00  1.3425962903000E-01  4.0943416442000E-02
   213  2.1200000000000E+00  1.3510189763000E-01  4.3640170549000E-02
   214  2.1300000000000E+00  1.3557289870000E-01  4.5977917669000E-02
   215  2.1400000000000E+00  1.3569262695000E-01  4.7967318878000E-02
   216  2.1500000000000E+00  1.3548003413000E-01  4.9620523510000E-02
   217  2.1600000000000E+00  1.3495336242000E-01  5.0950907673000E-02
   218  2.1700000000000E+00  1.3413351842000E-01  5.1971042902000E-02
   219  2.1800000000000E+00  1.3303701297000E-01  5.2695769889000E-02
   220  2.1900000000000E+00  1.3168307251000E-01  5.3139565093000E-02
   221  2.2000000000000E+00  1.3009021992000E-01  5.3317397355000E-02
   222  2.2100000000000E+00  1.2827426263000E-01  5.3245032983000E-02
   223  2.2200000000000E+00  1.2625451799000E-01  5.2938526213000E-02
   224  2.2300000000000E+00  1.2404599656000E-01  5.2413932315000E-02
   225  2.2400000000000E+00  1.2166433712000E-01  5.1687738952000E-02
   226  2.2500000000000E+00  1.1912747569000E-01  5.0777234063000E-02
   227  2.2600000000000E+00  1.1644759374000E-01  4.9698219769000E-02
   228  2.2700000000000E+00  1.1364038994000E-01  4.8468093377000E-02
   229  2.2800000000000E+00  1.1072023874000E-01  4.7103678846000E-02
   230  2.2900000000000E+00  1.0769858457000E-01  4.5620322270000E-02
   231  2.3000000000000E+00  1.0459026492000E-01  4.4035989742000E-02
   232  2.3100000000000E+00  1.0140638528000E-01  4.2365439155000E-02
   233  2.3200000000000E+00  9.8157783417000E-02  4.0623285175000E-02
   234  2.3300000000000E+00  9.4858191793000E-02  3.8827567428000E-02
   235  2.3400000000000E+00  9.1516117940000E-02  3.6989634825000E-02
   236  2.3500000000000E+00  8.8142150732000E-02  3.5123669739000E-02
   237  2.3600000000000E+00  8.4747821249000E-02  3.3245373362000E-02
   238  2.3700000000000E+00  8.1340770287000E-02  3.1363574891000E-02
   239  2.3800000000000E+00  7.7930931782000E-02  2.9491318210000E-02
   240  2.3900000000000E+00  7.4527835801000E-02  2.7640613526000E-02
   241  2.4000000000000E+00  7.1138653167000E-02  2.5818124649000E-02
   242  2.4100000000000E+00  6.7772582663000E-02  2.4035068702000E-02
   243  2.4200000000000E+00  6.4437596224000E-02  2.2299433160000E-02
   244  2.4300000000000E+00  6.1140324806000E-02  2.0615692091000E-02
   245  2.4400000000000E+00  5.7889281781000E-02  1.8992751213000E-02
   246  2.4500000000000E+00  5.4691100737000E-02  1.7434805598000E-02
   247  2.4600000000000E+00  5.1551718861000E-02  1.5944197170000E-02
   248  2.4700000000000E+00  4.8478966331000E-02  1.4527187972000E-02
   249  2.4800000000000E+00  4.5478146980000E-02  1.3184841707000E-02
   250  2.4900000000000E+00  4.2554285801000E-02  1.1917528825000E-02
   251  2.5000000000000E+00  3.9714430030000E-02  1.0728765649000E-02
   252  2.5100000000000E+00  3.6962454569000E-02  9.6173663360000E-03
   253  2.5200000000000E+00  3.4302208172000E-02  8.5820117105000E-03
   254  2.5300000000000E+00  3.1739730088000E-02  7.6236350078000E-03
   255  2.5400000000000E+00  2.9277393186000E-02  6.7396796712000E-03
   256  2.5500000000000E+00  2.6917591608000E-02  5.9275388129000E-03
   257  2.5600000000000E+00  2.4665029150000E-02  5.1859729310000E-03
   258  2.5700000000000E+00  2.2520628688000E-02  4.5117541835000E-03
   259  2.5800000000000E+00  2.0485089072000E-02  3.9014806047000E-03
   260  2.5900000000000E+00  1.8561418771000E-02  3.3523349870000E-03
   261  2.6000000000000E+00  1.6749286691000E-02  2.8608491092000E-03
   262  2.6100000000000E+00  1.5047564014000E-02  2.4233534437000E-03
   263  2.6200000000000E+00  1.3457276037000E-02  2.0361387597000E-03
   264  2.6300000000000E+00  1.1977106189000E-02  1.6956659785000E-03
   265  2.6400000000000E+00  1.0604149112000E-02  1.3984897774000E-03
   266  2.6500000000000E+00  9.3373461196000E-03  1.1406805798000E-03
   267  2.6600000000000E+00  8.1746031493000E-03  9.1861891732000E-04
   268  2.6700000000000E+00  7.1115299489000E-03  7.2947161138000E-04
   269  2.6800000000000E+00  6.1451646464000E-03  5.6965235526000E-04
   270  2.6900000000000E+00  5.2726471813000E-03  4.3538956749000E-04
   271  2.7000000000000E+00  4.4886483279000E-03  3.2469782262000E-04
   272  2.7100000000000E+00  3.7888074463000E-03  2.3472386989000E-04
   273  2.7200000000000E+00  3.1692430275000E-03  1.6151722610000E-04
   274  2.7300000000000E+00  2.6244379743000E-03  1.0400573765000E-04
   275  2.7400000000000E+00  2.1493805956000E-03  5.9970622666000E-05
   276  2.7500000000000E+00  1.7388290653000E-03  2.6227118629000E-05
   277  2.7600000000000E+00  1.3877825014000E-03  1.6652074927000E-06
   278  2.7700000000000E+00  1.0911282987000E-03 -1.5026785635000E-05
   279  2.7800000000000E+00  8.4311831568000E-04 -2.6024380117000E-05
   280  2.7900000000000E+00  6.3866239969000E-04 -3.2719136968000E-05
   281  2.8000000000000E+00  4.7348521657000E-04 -3.5547823662000E-05
   282  2.8100000000000E+00  3.4241435361000E-04 -3.5701091994000E-05
   283  2.8200000000000E+00  2.3942015252000E-04 -3.4802714022000E-05
   284  2.8300000000000E+00  1.6193392112000E-04 -3.2601194418000E-05
   285  2.8400000000000E+00  1.0585573481000E-04 -2.9638451476000E-05
   286  2.8500000000000E+00  6.5174910817000E-05 -2.7049490925000E-05
   287  2.8600000000000E+00  3.7961749163000E-05 -2.4665945110000E-05
   288  2.8700000000000E+00  2.1793267283000E-05 -2.2463885102000E-05
   289  2.8800000000000E+00  1.2635905088000E-05 -2.1054744768000E-05
   290  2.8900000000000E+00  7.2639008572000E-06 -2.0668701904000E-05
   291  2.9000000000000E+00  5.7175119204000E-06 -2.0047722705000E-05
   292  2.9100000000000E+00  6.3205703688000E-06 -1.8689194435000E-05
   293  2.9200000000000E+00  4.2871100240000E-06 -1.3838059268000E-05
   294  2.9300000000000E+00  2.2930642980000E-06 -8.1789314295000E-06
   295  2.9400000000000E+00  7.0228595914000E-07 -2.7244107015000E-06
   296  2.9500000000000E+00 -2.2101491094000E-07  6.3873667422000E-07
   297  2.9600000000000E+00 -4.2829217087000E-07  1.2377713144000E-06
   298  2.9700000000000E+00 -3.1683182261000E-07  9.1564910171000E-07
   299  2.9800000000000E+00 -3.4694390396000E-08  1.0026735048000E-07
   300  2.9900000000000E+00  0.0000000000000E+00  0.0000000000000E+00
   301  3.0000000000000E+00  0.0000000000000E+00  0.0000000000000E+00
   302  3.0100000000000E+00  0.0000000000000E+00  0.0000000000000E+00
   303  3.0200000000000E+00  0.0000000000000E+00  0.0000000000000E+00
   304  3.0300000000000E+00  0.0000000000000E+00  0.0000000000000E+00
   305  3.0400000000000E+00  0.0000000000000E+00  0.0000000000000E+00
   306  3.0500000000000E+00  0.0000000000000E+00  0.0000000000000E+00
   307  3.0600000000000E+00  0.0000000000000E+00  0.0000000000000E+00
   308  3.0700000000000E+00  0.0000000000000E+00  0.0000000000000E+00
   309  3.0800000000000E+00  0.0000000000000E+00  0.0000000000000E+00
   310  3.0900000000000E+00  0.0000000000000E+00  0.0000000000000E+00
   311  3.1000000000000E+00  0.0000000000000E+00  0.0000000000000E+00
   312  3.1100000000000E+00  0.0000000000000E+00  0.0000000000000E+00
   313  3.1200000000000E+00  0.0000000000000E+00  0.0000000000000E+00
   314  3.1300000000000E+00  0.0000000000000E+00  0.0000000000000E+00
   315  3.1400000000000E+00  0.0000000000000E+00  0.0000000000000E+00
   316  3.1500000000000E+00  0.0000000000000E+00  0.0000000000000E+00
   317  3.1600000000000E+00  0.0000000000000E+00  0.0000000000000E+00
   318  3.1700000000000E+00  0.0000000000000E+00  0.0000000000000E+00
   319  3.1800000000000E+00  0.0000000000000E+00  0.0000000000000E+00
   320  3.1900000000000E+00  0.0000000000000E+00  0.0000000000000E+00
   321  3.2000000000000E+00  0.0000000000000E+00  0.0000000000000E+00
   322  3.2100000000000E+00  0.0000000000000E+00  0.0000000000000E+00
   323  3.2200000000000E+00  0.0000000000000E+00  0.0000000000000E+00
   324  3.2300000000000E+00  0.0000000000000E+00  0.0000000000000E+00
   325  3.2400000000000E+00  0.0000000000000E+00  0.0000000000000E+00
   326  3.2500000000000E+00  0.0000000000000E+00  0.0000000000000E+00
   327  3.2600000000000E+00  0.0000000000000E+00  0.0000000000000E+00
   328  3.2700000000000E+00  0.0000000000000E+00  0.0000000000000E+00
   329  3.2800000000000E+00  0.0000000000000E+00  0.0000000000000E+00
   330  3.2900000000000E+00  0.0000000000000E+00  0.0000000000000E+00
   331  3.3000000000000E+00  0.0000000000000E+00  0.0000000000000E+00
   332  3.3100000000000E+00  0.0000000000000E+00  0.0000000000000E+00
   333  3.3200000000000E+00  0.0000000000000E+00  0.0000000000000E+00
   334  3.3300000000000E+00  0.0000000000000E+00  0.0000000000000E+00
   335  3.3400000000000E+00  0.0000000000000E+00  0.0000000000000E+00
   336  3.3500000000000E+00  0.0000000000000E+00  0.0000000000000E+00
   337  3.3600000000000E+00  0.0000000000000E+00  0.0000000000000E+00
   338  3.3700000000000E+00  0.0000000000000E+00  0.0000000000000E+00
   339  3.3800000000000E+00  0.0000000000000E+00  0.0000000000000E+00
   340  3.3900000000000E+00  0.0000000000000E+00  0.0000000000000E+00
   341  3.4000000000000E+00  0.0000000000000E+00  0.0000000000000E+00
   342  3.4100000000000E+00  0.0000000000000E+00  0.0000000000000E+00
   343  3.4200000000000E+00  0.0000000000000E+00  0.0000000000000E+00
   344  3.4300000000000E+00  0.0000000000000E+00  0.0000000000000E+00
   345  3.4400000000000E+00  0.0000000000000E+00  0.0000000000000E+00
   346  3.4500000000000E+00  0.0000000000000E+00  0.0000000000000E+00
   347  3.4600000000000E+00  0.0000000000000E+00  0.0000000000000E+00
   348  3.4700000000000E+00  0.0000000000000E+00  0.0000000000000E+00
   349  3.4800000000000E+00  0.0000000000000E+00  0.0000000000000E+00
   350  3.4900000000000E+00  0.0000000000000E+00  0.0000000000000E+00
   351  3.5000000000000E+00  0.0000000000000E+00  0.0000000000000E+00
   352  3.5100000000000E+00  0.0000000000000E+00  0.0000000000000E+00
   353  3.5200000000000E+00  0.0000000000000E+00  0.0000000000000E+00
   354  3.5300000000000E+00  0.0000000000000E+00  0.0000000000000E+00
   355  3.5400000000000E+00  0.0000000000000E+00  0.0000000000000E+00
   356  3.5500000000000E+00  0.0000000000000E+00  0.0000000000000E+00
   357  3.5600000000000E+00  0.0000000000000E+00  0.0000000000000E+00
   358  3.5700000000000E+00  0.0000000000000E+00  0.0000000000000E+00
   359  3.5800000000000E+00  0.0000000000000E+00  0.0000000000000E+00
   360  3.5900000000000E+00  0.0000000000000E+00  0.0000000000000E+00
   361  3.6000000000000E+00  0.0000000000000E+00  0.0000000000000E+00
   362  3.6100000000000E+00  0.0000000000000E+00  0.0000000000000E+00
   363  3.6200000000000E+00  0.0000000000000E+00  0.0000000000000E+00
   364  3.6300000000000E+00  0.0000000000000E+00  0.0000000000000E+00
   365  3.6400000000000E+00  0.0000000000000E+00  0.0000000000000E+00
   366  3.6500000000000E+00  0.0000000000000E+00  0.0000000000000E+00
   367  3.6600000000000E+00  0.0000000000000E+00  0.0000000000000E+00
   368  3.6700000000000E+00  0.0000000000000E+00  0.0000000000000E+00
   369  3.6800000000000E+00  0.0000000000000E+00  0.0000000000000E+00
   370  3.6900000000000E+00  0.0000000000000E+00  0.0000000000000E+00
   371  3.7000000000000E+00  0.0000000000000E+00  0.0000000000000E+00
   372  3.7100000000000E+00  0.0000000000000E+00  0.0000000000000E+00
   373  3.7200000000000E+00  0.0000000000000E+00  0.0000000000000E+00
   374  3.7300000000000E+00  0.0000000000000E+00  0.0000000000000E+00
   375  3.7400000000000E+00  0.0000000000000E+00  0.0000000000000E+00
   376  3.7500000000000E+00  0.0000000000000E+00  0.0000000000000E+00
   377  3.7600000000000E+00  0.0000000000000E+00  0.0000000000000E+00
   378  3.7700000000000E+00  0.0000000000000E+00  0.0000000000000E+00
   379  3.7800000000000E+00  0.0000000000000E+00  0.0000000000000E+00
   380  3.7900000000000E+00  0.0000000000000E+00  0.0000000000000E+00
   381  3.8000000000000E+00  0.0000000000000E+00  0.0000000000000E+00
   382  3.8100000000000E+00  0.0000000000000E+00  0.0000000000000E+00
   383  3.8200000000000E+00  0.0000000000000E+00  0.0000000000000E+00
   384  3.8300000000000E+00  0.0000000000000E+00  0.0000000000000E+00
   385  3.8400000000000E+00  0.0000000000000E+00  0.0000000000000E+00
   386  3.8500000000000E+00  0.0000000000000E+00  0.0000000000000E+00
   387  3.8600000000000E+00  0.0000000000000E+00  0.0000000000000E+00
   388  3.8700000000000E+00  0.0000000000000E+00  0.0000000000000E+00
   389  3.8800000000000E+00  0.0000000000000E+00  0.0000000000000E+00
   390  3.8900000000000E+00  0.0000000000000E+00  0.0000000000000E+00
   391  3.9000000000000E+00  0.0000000000000E+00  0.0000000000000E+00
   392  3.9100000000000E+00  0.0000000000000E+00  0.0000000000000E+00
   393  3.9200000000000E+00  0.0000000000000E+00  0.0000000000000E+00
   394  3.9300000000000E+00  0.0000000000000E+00  0.0000000000000E+00
   395  3.9400000000000E+00  0.0000000000000E+00  0.0000000000000E+00
   396  3.9500000000000E+00  0.0000000000000E+00  0.0000000000000E+00
   397  3.9600000000000E+00  0.0000000000000E+00  0.0000000000000E+00
   398  3.9700000000000E+00  0.0000000000000E+00  0.0000000000000E+00
   399  3.9800000000000E+00  0.0000000000000E+00  0.0000000000000E+00
   400  3.9900000000000E+00  0.0000000000000E+00  0.0000000000000E+00
   401  4.0000000000000E+00  0.0000000000000E+00  0.0000000000000E+00
   402  4.0100000000000E+00  0.0000000000000E+00  0.0000000000000E+00
   403  4.0200000000000E+00  0.0000000000000E+00  0.0000000000000E+00
   404  4.0300000000000E+00  0.0000000000000E+00  0.0000000000000E+00
   405  4.0400000000000E+00  0.0000000000000E+00  0.0000000000000E+00
   406  4.0500000000000E+00  0.0000000000000E+00  0.0000000000000E+00
   407  4.0600000000000E+00  0.0000000000000E+00  0.0000000000000E+00
   408  4.0700000000000E+00  0.0000000000000E+00  0.0000000000000E+00
   409  4.0800000000000E+00  0.0000000000000E+00  0.0000000000000E+00
   410  4.0900000000000E+00  0.0000000000000E+00  0.0000000000000E+00
   411  4.1000000000000E+00  0.0000000000000E+00  0.0000000000000E+00
   412  4.1100000000000E+00  0.0000000000000E+00  0.0000000000000E+00
   413  4.1200000000000E+00  0.0000000000000E+00  0.0000000000000E+00
   414  4.1300000000000E+00  0.0000000000000E+00  0.0000000000000E+00
   415  4.1400000000000E+00  0.0000000000000E+00  0.0000000000000E+00
   416  4.1500000000000E+00  0.0000000000000E+00  0.0000000000000E+00
   417  4.1600000000000E+00  0.0000000000000E+00  0.0000000000000E+00
   418  4.1700000000000E+00  0.0000000000000E+00  0.0000000000000E+00
   419  4.1800000000000E+00  0.0000000000000E+00  0.0000000000000E+00
   420  4.1900000000000E+00  0.0000000000000E+00  0.0000000000000E+00
   421  4.2000000000000E+00  0.0000000000000E+00  0.0000000000000E+00
   422  4.2100000000000E+00  0.0000000000000E+00  0.0000000000000E+00
   423  4.2200000000000E+00  0.0000000000000E+00  0.0000000000000E+00