Ti   ONCVPSP-2.1.1   r_core=    2.46607 2.32329 2.26852
    22.0000   12.0000   150105   zatom,zion,pspd
    8   11   2   4   600   0   pspcod,pspxc,lmax,lloc,mmax,r2well
    5.99000000   0.00000000   0.00000000   rchrg fchrg qchrg
    2   2   2   0   0   nproj
    1   1   extension_switch
       0                         1.9394751768500E+00 -2.6955736469500E-01
     1  0.0000000000000E+00  0.0000000000000E+00  0.0000000000000E+00
     2  1.0000000000000E-02  3.2956642087000E-02  6.4137873049000E-02
     3  2.0000000000000E-02  6.5909576218000E-02  1.2804684564000E-01
     4  3.0000000000000E-02  9.8854955726000E-02  1.9149880111000E-01
     5  4.0000000000000E-02  1.3178865729000E-01  2.5426718778000E-01
     6  5.0000000000000E-02  1.6470614445000E-01  3.1612779491000E-01
     7  6.0000000000000E-02  1.9760233341000E-01  3.7685952079000E-01
     8  7.0000000000000E-02  2.3047146176000E-01  4.3624513044000E-01
     9  8.0000000000000E-02  2.6330696093000E-01  4.9407200041000E-01
    10  9.0000000000000E-02  2.9610133300000E-01  5.5013284800000E-01
    11  1.0000000000000E-01  3.2884603262000E-01  6.0422644265000E-01
    12  1.1000000000000E-01  3.6153135470000E-01  6.5615829697000E-01
    13  1.2000000000000E-01  3.9414632845000E-01  7.0574133501000E-01
    14  1.3000000000000E-01  4.2667861850000E-01  7.5279653562000E-01
    15  1.4000000000000E-01  4.5911443363000E-01  7.9715354857000E-01
    16  1.5000000000000E-01  4.9143844365000E-01  8.3865128136000E-01
    17  1.6000000000000E-01  5.2363370505000E-01  8.7713845458000E-01
    18  1.7000000000000E-01  5.5568159579000E-01  9.1247412403000E-01
    19  1.8000000000000E-01  5.8756175988000E-01  9.4452816753000E-01
    20  1.9000000000000E-01  6.1925206193000E-01  9.7318173506000E-01
    21  2.0000000000000E-01  6.5072855230000E-01  9.9832765960000E-01
    22  2.1000000000000E-01  6.8196544293000E-01  1.0198708292000E+00
    23  2.2000000000000E-01  7.1293509440000E-01  1.0377285160000E+00
    24  2.3000000000000E-01  7.4360801427000E-01  1.0518306638000E+00
    25  2.4000000000000E-01  7.7395286704000E-01  1.0621201308000E+00
    26  2.5000000000000E-01  8.0393649567000E-01  1.0685528885000E+00
    27  2.6000000000000E-01  8.3352395506000E-01  1.0710981735000E+00
    28  2.7000000000000E-01  8.6267855727000E-01  1.0697385950000E+00
    29  2.8000000000000E-01  8.9136192863000E-01  1.0644701929000E+00
    30  2.9000000000000E-01  9.1953407855000E-01  1.0553024507000E+00
    31  3.0000000000000E-01  9.4715348011000E-01  1.0422582598000E+00
    32  3.1000000000000E-01  9.7417716210000E-01  1.0253738365000E+00
    33  3.2000000000000E-01  1.0005608121000E+00  1.0046985917000E+00
    34  3.3000000000000E-01  1.0262588909000E+00  9.8029495329000E-01
    35  3.4000000000000E-01  1.0512247582000E+00  9.5223814182000E-01
    36  3.5000000000000E-01  1.0754108059000E+00  9.2061590095000E-01
    37  3.6000000000000E-01  1.0987686059000E+00  8.8552817996000E-01
    38  3.7000000000000E-01  1.1212490629000E+00  8.4708677482000E-01
    39  3.8000000000000E-01  1.1428025763000E+00  8.0541492840000E-01
    40  3.9000000000000E-01  1.1633792162000E+00  7.6064687774000E-01
    41  4.0000000000000E-01  1.1829288987000E+00  7.1292737428000E-01
    42  4.1000000000000E-01  1.2014015737000E+00  6.6241115836000E-01
    43  4.2000000000000E-01  1.2187474165000E+00  6.0926239738000E-01
    44  4.3000000000000E-01  1.2349170266000E+00  5.5365408895000E-01
    45  4.4000000000000E-01  1.2498616299000E+00  4.9576743090000E-01
    46  4.5000000000000E-01  1.2635332856000E+00  4.3579116043000E-01
    47  4.6000000000000E-01  1.2758850952000E+00  3.7392086452000E-01
    48  4.7000000000000E-01  1.2868714148000E+00  3.1035826479000E-01
    49  4.8000000000000E-01  1.2964480605000E+00  2.4531049814000E-01
    50  4.9000000000000E-01  1.3045725382000E+00  1.7898931147000E-01
    51  5.0000000000000E-01  1.3112042449000E+00  1.1161031155000E-01
    52  5.1000000000000E-01  1.3163046740000E+00  4.3392193319000E-02
    53  5.2000000000000E-01  1.3198376269000E+00 -2.5444074807000E-02
    54  5.3000000000000E-01  1.3217694407000E+00 -9.4676143345000E-02
    55  5.4000000000000E-01  1.3220691362000E+00 -1.6408092764000E-01
    56  5.5000000000000E-01  1.3207086748000E+00 -2.3343564172000E-01
    57  5.6000000000000E-01  1.3176630922000E+00 -3.0251843543000E-01
    58  5.7000000000000E-01  1.3129107158000E+00 -3.7110934185000E-01
    59  5.8000000000000E-01  1.3064333095000E+00 -4.3899099273000E-01
    60  5.9000000000000E-01  1.2982162687000E+00 -5.0594954182000E-01
    61  6.0000000000000E-01  1.2882487151000E+00 -5.7177523017000E-01
    62  6.1000000000000E-01  1.2765237304000E+00 -6.3626352722000E-01
    63  6.2000000000000E-01  1.2630383672000E+00 -6.9921540343000E-01
    64  6.3000000000000E-01  1.2477938747000E+00 -7.6043851028000E-01
    65  6.4000000000000E-01  1.2307957496000E+00 -8.1974767637000E-01
    66  6.5000000000000E-01  1.2120537882000E+00 -8.7696540522000E-01
    67  6.6000000000000E-01  1.1915822475000E+00 -9.3192292110000E-01
    68  6.7000000000000E-01  1.1693998507000E+00 -9.8446054496000E-01
    69  6.8000000000000E-01  1.1455298225000E+00 -1.0344282281000E+00
    70  6.9000000000000E-01  1.1199999010000E+00 -1.0816859903000E+00
    71  7.0000000000000E-01  1.0928424329000E+00 -1.1261048964000E+00
    72  7.1000000000000E-01  1.0640942767000E+00 -1.1675670258000E+00
    73  7.2000000000000E-01  1.0337968046000E+00 -1.2059660223000E+00
    74  7.3000000000000E-01  1.0019958600000E+00 -1.2412074551000E+00
    75  7.4000000000000E-01  9.6874168940000E-01 -1.2732090582000E+00
    76  7.5000000000000E-01  9.3408888657000E-01 -1.3019011793000E+00
    77  7.6000000000000E-01  8.9809627927000E-01 -1.3272268762000E+00
    78  7.7000000000000E-01  8.6082681026000E-01 -1.3491420200000E+00
    79  7.8000000000000E-01  8.2234741097000E-01 -1.3676154400000E+00
    80  7.9000000000000E-01  7.8272885278000E-01 -1.3826289728000E+00
    81  8.0000000000000E-01  7.4204558134000E-01 -1.3941774578000E+00
    82  8.1000000000000E-01  7.0037553455000E-01 -1.4022686788000E+00
    83  8.2000000000000E-01  6.5779994477000E-01 -1.4069232519000E+00
    84  8.3000000000000E-01  6.1440312570000E-01 -1.4081744601000E+00
    85  8.4000000000000E-01  5.7027224484000E-01 -1.4060680358000E+00
    86  8.5000000000000E-01  5.2549708206000E-01 -1.4006618919000E+00
    87  8.6000000000000E-01  4.8016977531000E-01 -1.3920258027000E+00
    88  8.7000000000000E-01  4.3438455422000E-01 -1.3802410359000E+00
    89  8.8000000000000E-01  3.8823746254000E-01 -1.3653999373000E+00
    90  8.9000000000000E-01  3.4182607054000E-01 -1.3476054702000E+00
    91  9.0000000000000E-01  2.9524917836000E-01 -1.3269707114000E+00
    92  9.1000000000000E-01  2.4860651152000E-01 -1.3036183057000E+00
    93  9.2000000000000E-01  2.0199840981000E-01 -1.2776798824000E+00
    94  9.3000000000000E-01  1.5552551090000E-01 -1.2492954356000E+00
    95  9.4000000000000E-01  1.0928843001000E-01 -1.2186126715000E+00
    96  9.5000000000000E-01  6.3387437209000E-02 -1.1857863272000E+00
    97  9.6000000000000E-01  1.7922224706000E-02 -1.1509775495000E+00
    98  9.7000000000000E-01 -2.7008636584000E-02 -1.1143529884000E+00
    99  9.8000000000000E-01 -7.1307897116000E-02 -1.0760841021000E+00
   100  9.9000000000000E-01 -1.1487992492000E-01 -1.0363464263000E+00
   101  1.0000000000000E+00 -1.5763104956000E-01 -9.9531876837000E-01
   102  1.0100000000000E+00 -1.9946987156000E-01 -9.5318241810000E-01
   103  1.0200000000000E+00 -2.4030754889000E-01 -9.1012037984000E-01
   104  1.0300000000000E+00 -2.8005784505000E-01 -8.6631699494000E-01
   105  1.0400000000000E+00 -3.1863824466000E-01 -8.2195581734000E-01
   106  1.0500000000000E+00 -3.5596944211000E-01 -7.7722001365000E-01
   107  1.0600000000000E+00 -3.9197583688000E-01 -7.3229124577000E-01
   108  1.0700000000000E+00 -4.2658577577000E-01 -6.8734892179000E-01
   109  1.0800000000000E+00 -4.5973132061000E-01 -6.4257039174000E-01
   110  1.0900000000000E+00 -4.9134992054000E-01 -5.9812738492000E-01
   111  1.1000000000000E+00 -5.2138326615000E-01 -5.5418783922000E-01
   112  1.1100000000000E+00 -5.4977784249000E-01 -5.1091456019000E-01
   113  1.1200000000000E+00 -5.7648467371000E-01 -4.6846554071000E-01
   114  1.1300000000000E+00 -6.0146062564000E-01 -4.2699084386000E-01
   115  1.1400000000000E+00 -6.2466792239000E-01 -3.8663322379000E-01
   116  1.1500000000000E+00 -6.4607394653000E-01 -3.4752832874000E-01
   117  1.1600000000000E+00 -6.6565092027000E-01 -3.0980531994000E-01
   118  1.1700000000000E+00 -6.8337785047000E-01 -2.7358182519000E-01
   119  1.1800000000000E+00 -6.9923905854000E-01 -2.3896706705000E-01
   120  1.1900000000000E+00 -7.1322406530000E-01 -2.0606201148000E-01
   121  1.2000000000000E+00 -7.2532800504000E-01 -1.7495813073000E-01
   122  1.2100000000000E+00 -7.3555271325000E-01 -1.4573390667000E-01
   123  1.2200000000000E+00 -7.4390497355000E-01 -1.1845925976000E-01
   124  1.2300000000000E+00 -7.5039629798000E-01 -9.3196266411000E-02
   125  1.2400000000000E+00 -7.5504550991000E-01 -6.9990910119000E-02
   126  1.2500000000000E+00 -7.5787590305000E-01 -4.8881046605000E-02
   127  1.2600000000000E+00 -7.5891532013000E-01 -2.9896399606000E-02
   128  1.2700000000000E+00 -7.5819822058000E-01 -1.3051008590000E-02
   129  1.2800000000000E+00 -7.5576338590000E-01  1.6498055264000E-03
   130  1.2900000000000E+00 -7.5165371375000E-01  1.4208268908000E-02
   131  1.3000000000000E+00 -7.4591803749000E-01  2.4642286024000E-02
   132  1.3100000000000E+00 -7.3860882765000E-01  3.2977203288000E-02
   133  1.3200000000000E+00 -7.2978247556000E-01  3.9246237697000E-02
   134  1.3300000000000E+00 -7.1950011181000E-01  4.3496909018000E-02
   135  1.3400000000000E+00 -7.0782584999000E-01  4.5782269699000E-02
   136  1.3500000000000E+00 -6.9482749136000E-01  4.6164804877000E-02
   137  1.3600000000000E+00 -6.8057588599000E-01  4.4717194193000E-02
   138  1.3700000000000E+00 -6.6514470737000E-01  4.1517013696000E-02
   139  1.3800000000000E+00 -6.4861015326000E-01  3.6651732381000E-02
   140  1.3900000000000E+00 -6.3105036121000E-01  3.0214367990000E-02
   141  1.4000000000000E+00 -6.1254607336000E-01  2.2303678247000E-02
   142  1.4100000000000E+00 -5.9317840246000E-01  1.3025145052000E-02
   143  1.4200000000000E+00 -5.7303090696000E-01  2.4879541346000E-03
   144  1.4300000000000E+00 -5.5218718984000E-01 -9.1937220270000E-03
   145  1.4400000000000E+00 -5.3073133770000E-01 -2.1903032174000E-02
   146  1.4500000000000E+00 -5.0874898724000E-01 -3.5519055444000E-02
   147  1.4600000000000E+00 -4.8632308704000E-01 -4.9920988527000E-02
   148  1.4700000000000E+00 -4.6353956916000E-01 -6.4983654271000E-02
   149  1.4800000000000E+00 -4.4048000866000E-01 -8.0584732425000E-02
   150  1.4900000000000E+00 -4.1722755353000E-01 -9.6599487075000E-02
   151  1.5000000000000E+00 -3.9386282223000E-01 -1.1290503510000E-01
   152  1.5100000000000E+00 -3.7046408667000E-01 -1.2938149749000E-01
   153  1.5200000000000E+00 -3.4711014087000E-01 -1.4590737075000E-01
   154  1.5300000000000E+00 -3.2387295323000E-01 -1.6237147998000E-01
   155  1.5400000000000E+00 -3.0082848494000E-01 -1.7865591770000E-01
   156  1.5500000000000E+00 -2.7804190258000E-01 -1.9466050998000E-01
   157  1.5600000000000E+00 -2.5558332283000E-01 -2.1027677394000E-01
   158  1.5700000000000E+00 -2.3351228420000E-01 -2.2541475600000E-01
   159  1.5800000000000E+00 -2.1189089190000E-01 -2.3998029468000E-01
   160  1.5900000000000E+00 -1.9077273910000E-01 -2.5389503333000E-01
   161  1.6000000000000E+00 -1.7021091128000E-01 -2.6708222310000E-01
   162  1.6100000000000E+00 -1.5025226511000E-01 -2.7947731975000E-01
   163  1.6200000000000E+00 -1.3094027695000E-01 -2.9102332550000E-01
   164  1.6300000000000E+00 -1.1231426104000E-01 -3.0167197625000E-01
   165  1.6400000000000E+00 -9.4407782929000E-02 -3.1138749549000E-01
   166  1.6500000000000E+00 -7.7251703536000E-02 -3.2014155759000E-01
   167  1.6600000000000E+00 -6.0870148672000E-02 -3.2791598382000E-01
   168  1.6700000000000E+00 -4.5285732150000E-02 -3.3469694896000E-01
   169  1.6800000000000E+00 -3.0514224943000E-02 -3.4047712506000E-01
   170  1.6900000000000E+00 -1.6570644387000E-02 -3.4525019249000E-01
   171  1.7000000000000E+00 -3.4631525457000E-03 -3.4901758560000E-01
   172  1.7100000000000E+00  8.8009341795000E-03 -3.5178171952000E-01
   173  1.7200000000000E+00  2.0220443946000E-02 -3.5355245815000E-01
   174  1.7300000000000E+00  3.0795662531000E-02 -3.5434144690000E-01
   175  1.7400000000000E+00  4.0531752543000E-02 -3.5416652002000E-01
   176  1.7500000000000E+00  4.9436304624000E-02 -3.5304857539000E-01
   177  1.7600000000000E+00  5.7520153045000E-02 -3.5101279716000E-01
   178  1.7700000000000E+00  6.4797689357000E-02 -3.4808896177000E-01
   179  1.7800000000000E+00  7.1284797420000E-02 -3.4430892394000E-01
   180  1.7900000000000E+00  7.7001938234000E-02 -3.3971051358000E-01
   181  1.8000000000000E+00  8.1969509730000E-02 -3.3433162075000E-01
   182  1.8100000000000E+00  8.6213072143000E-02 -3.2821681575000E-01
   183  1.8200000000000E+00  8.9757122142000E-02 -3.2140951702000E-01
   184  1.8300000000000E+00  9.2631103719000E-02 -3.1395922309000E-01
   185  1.8400000000000E+00  9.4863374079000E-02 -3.0591458326000E-01
   186  1.8500000000000E+00  9.6485832994000E-02 -2.9732789885000E-01
   187  1.8600000000000E+00  9.7530509332000E-02 -2.8825246512000E-01
   188  1.8700000000000E+00  9.8030632911000E-02 -2.7874189111000E-01
   189  1.8800000000000E+00  9.8020711064000E-02 -2.6885203658000E-01
   190  1.8900000000000E+00  9.7535243424000E-02 -2.5863773473000E-01
   191  1.9000000000000E+00  9.6609516466000E-02 -2.4815450629000E-01
   192  1.9100000000000E+00  9.5279467269000E-02 -2.3745872606000E-01
   193  1.9200000000000E+00  9.3579351142000E-02 -2.2660241891000E-01
   194  1.9300000000000E+00  9.1546789991000E-02 -2.1564394875000E-01
   195  1.9400000000000E+00  8.9214117198000E-02 -2.0463044757000E-01
   196  1.9500000000000E+00  8.6618320074000E-02 -1.9361770524000E-01
   197  1.9600000000000E+00  8.3791433488000E-02 -1.8265134727000E-01
   198  1.9700000000000E+00  8.0767173535000E-02 -1.7177968313000E-01
   199  1.9800000000000E+00  7.7578339556000E-02 -1.6104882127000E-01
   200  1.9900000000000E+00  7.4253412018000E-02 -1.5049615365000E-01
   201  2.0000000000000E+00  7.0826499130000E-02 -1.4016917761000E-01
   202  2.0100000000000E+00  6.7321212918000E-02 -1.3009535130000E-01
   203  2.0200000000000E+00  6.3768039767000E-02 -1.2031436590000E-01
   204  2.0300000000000E+00  6.0190628724000E-02 -1.1085299705000E-01
   205  2.0400000000000E+00  5.6612241954000E-02 -1.0173681107000E-01
   206  2.0500000000000E+00  5.3058064009000E-02 -9.2994442461000E-02
   207  2.0600000000000E+00  4.9544062523000E-02 -8.4637746208000E-02
   208  2.0700000000000E+00  4.6093677674000E-02 -7.6691185192000E-02
   209  2.0800000000000E+00  4.2720367632000E-02 -6.9161734923000E-02
   210  2.0900000000000E+00  3.9439936775000E-02 -6.2059855991000E-02
   211  2.1000000000000E+00  3.6267950951000E-02 -5.5395328188000E-02
   212  2.1100000000000E+00  3.3212022995000E-02 -4.9164593160000E-02
   213  2.1200000000000E+00  3.0286639928000E-02 -4.3374528544000E-02
   214  2.1300000000000E+00  2.7496582431000E-02 -3.8016899005000E-02
   215  2.1400000000000E+00  2.4848817933000E-02 -3.3086250638000E-02
   216  2.1500000000000E+00  2.2350617401000E-02 -2.8577328728000E-02
   217  2.1600000000000E+00  2.0001809840000E-02 -2.4474332647000E-02
   218  2.1700000000000E+00  1.7807598282000E-02 -2.0767946130000E-02
   219  2.1800000000000E+00  1.5766837149000E-02 -1.7441155953000E-02
   220  2.1900000000000E+00  1.3878097746000E-02 -1.4476154657000E-02
   221  2.2000000000000E+00  1.2142245784000E-02 -1.1857019668000E-02
   222  2.2100000000000E+00  1.0553408322000E-02 -9.5618512485000E-03
   223  2.2200000000000E+00  9.1089703485000E-03 -7.5705052891000E-03
   224  2.2300000000000E+00  7.8042839559000E-03 -5.8618770940000E-03
   225  2.2400000000000E+00  6.6325436930000E-03 -4.4138685580000E-03
   226  2.2500000000000E+00  5.5888087736000E-03 -3.2031732999000E-03
   227  2.2600000000000E+00  4.6654128966000E-03 -2.2087784278000E-03
   228  2.2700000000000E+00  3.8549449085000E-03 -1.4083828754000E-03
   229  2.2800000000000E+00  3.1501612281000E-03 -7.7791112528000E-04
   230  2.2900000000000E+00  2.5429403776000E-03 -2.9935967500000E-04
   231  2.3000000000000E+00  2.0250362574000E-03  4.9964098608000E-05
   232  2.3100000000000E+00  1.5883674116000E-03  2.9030926793000E-04
   233  2.3200000000000E+00  1.2253083531000E-03  4.3695729046000E-04
   234  2.3300000000000E+00  9.2694620303000E-04  5.1173256846000E-04
   235  2.3400000000000E+00  6.8614214550000E-04  5.2832334186000E-04
   236  2.3500000000000E+00  4.9599338146000E-04  4.9903113484000E-04
   237  2.3600000000000E+00  3.4744401131000E-04  4.4358012136000E-04
   238  2.3700000000000E+00  2.3555747831000E-04  3.6775736122000E-04
   239  2.3800000000000E+00  1.5421271192000E-04  2.8101610524000E-04
   240  2.3900000000000E+00  9.5283419002000E-05  1.9845101975000E-04
   241  2.4000000000000E+00  5.6242310558000E-05  1.1916420281000E-04
   242  2.4100000000000E+00  3.1872481239000E-05  4.9544905485000E-05
   243  2.4200000000000E+00  1.6378853463000E-05 -2.6840659925000E-06
   244  2.4300000000000E+00  8.9644780673000E-06 -4.2520922466000E-05
   245  2.4400000000000E+00  6.0147968765000E-06 -6.9827851236000E-05
   246  2.4500000000000E+00  4.3513126456000E-06 -8.4533417878000E-05
   247  2.4600000000000E+00  4.3759474444000E-06 -8.7050410336000E-05
   248  2.4700000000000E+00  4.0705156466000E-06 -7.3798543153000E-05
   249  2.4800000000000E+00  2.3653739491000E-06 -4.5647943167000E-05
   250  2.4900000000000E+00  7.6097142152000E-07 -1.5363046318000E-05
   251  2.5000000000000E+00 -1.8730726002000E-07  3.2899594019000E-06
   252  2.5100000000000E+00 -3.1118319535000E-07  5.4657789515000E-06
   253  2.5200000000000E+00 -1.4911026447000E-07  2.6190480629000E-06
   254  2.5300000000000E+00  0.0000000000000E+00  0.0000000000000E+00
   255  2.5400000000000E+00  0.0000000000000E+00  0.0000000000000E+00
   256  2.5500000000000E+00  0.0000000000000E+00  0.0000000000000E+00
   257  2.5600000000000E+00  0.0000000000000E+00  0.0000000000000E+00
   258  2.5700000000000E+00  0.0000000000000E+00  0.0000000000000E+00
   259  2.5800000000000E+00  0.0000000000000E+00  0.0000000000000E+00
   260  2.5900000000000E+00  0.0000000000000E+00  0.0000000000000E+00
   261  2.6000000000000E+00  0.0000000000000E+00  0.0000000000000E+00
   262  2.6100000000000E+00  0.0000000000000E+00  0.0000000000000E+00
   263  2.6200000000000E+00  0.0000000000000E+00  0.0000000000000E+00
   264  2.6300000000000E+00  0.0000000000000E+00  0.0000000000000E+00
   265  2.6400000000000E+00  0.0000000000000E+00  0.0000000000000E+00
   266  2.6500000000000E+00  0.0000000000000E+00  0.0000000000000E+00
   267  2.6600000000000E+00  0.0000000000000E+00  0.0000000000000E+00
   268  2.6700000000000E+00  0.0000000000000E+00  0.0000000000000E+00
   269  2.6800000000000E+00  0.0000000000000E+00  0.0000000000000E+00
   270  2.6900000000000E+00  0.0000000000000E+00  0.0000000000000E+00
   271  2.7000000000000E+00  0.0000000000000E+00  0.0000000000000E+00
   272  2.7100000000000E+00  0.0000000000000E+00  0.0000000000000E+00
   273  2.7200000000000E+00  0.0000000000000E+00  0.0000000000000E+00
   274  2.7300000000000E+00  0.0000000000000E+00  0.0000000000000E+00
   275  2.7400000000000E+00  0.0000000000000E+00  0.0000000000000E+00
   276  2.7500000000000E+00  0.0000000000000E+00  0.0000000000000E+00
   277  2.7600000000000E+00  0.0000000000000E+00  0.0000000000000E+00
   278  2.7700000000000E+00  0.0000000000000E+00  0.0000000000000E+00
   279  2.7800000000000E+00  0.0000000000000E+00  0.0000000000000E+00
   280  2.7900000000000E+00  0.0000000000000E+00  0.0000000000000E+00
   281  2.8000000000000E+00  0.0000000000000E+00  0.0000000000000E+00
   282  2.8100000000000E+00  0.0000000000000E+00  0.0000000000000E+00
   283  2.8200000000000E+00  0.0000000000000E+00  0.0000000000000E+00
   284  2.8300000000000E+00  0.0000000000000E+00  0.0000000000000E+00
   285  2.8400000000000E+00  0.0000000000000E+00  0.0000000000000E+00
   286  2.8500000000000E+00  0.0000000000000E+00  0.0000000000000E+00
   287  2.8600000000000E+00  0.0000000000000E+00  0.0000000000000E+00
   288  2.8700000000000E+00  0.0000000000000E+00  0.0000000000000E+00
   289  2.8800000000000E+00  0.0000000000000E+00  0.0000000000000E+00
   290  2.8900000000000E+00  0.0000000000000E+00  0.0000000000000E+00
   291  2.9000000000000E+00  0.0000000000000E+00  0.0000000000000E+00
   292  2.9100000000000E+00  0.0000000000000E+00  0.0000000000000E+00
   293  2.9200000000000E+00  0.0000000000000E+00  0.0000000000000E+00
   294  2.9300000000000E+00  0.0000000000000E+00  0.0000000000000E+00
   295  2.9400000000000E+00  0.0000000000000E+00  0.0000000000000E+00
   296  2.9500000000000E+00  0.0000000000000E+00  0.0000000000000E+00
   297  2.9600000000000E+00  0.0000000000000E+00  0.0000000000000E+00
   298  2.9700000000000E+00  0.0000000000000E+00  0.0000000000000E+00
   299  2.9800000000000E+00  0.0000000000000E+00  0.0000000000000E+00
   300  2.9900000000000E+00  0.0000000000000E+00  0.0000000000000E+00
   301  3.0000000000000E+00  0.0000000000000E+00  0.0000000000000E+00
   302  3.0100000000000E+00  0.0000000000000E+00  0.0000000000000E+00
   303  3.0200000000000E+00  0.0000000000000E+00  0.0000000000000E+00
   304  3.0300000000000E+00  0.0000000000000E+00  0.0000000000000E+00
   305  3.0400000000000E+00  0.0000000000000E+00  0.0000000000000E+00
   306  3.0500000000000E+00  0.0000000000000E+00  0.0000000000000E+00
   307  3.0600000000000E+00  0.0000000000000E+00  0.0000000000000E+00
   308  3.0700000000000E+00  0.0000000000000E+00  0.0000000000000E+00
   309  3.0800000000000E+00  0.0000000000000E+00  0.0000000000000E+00
   310  3.0900000000000E+00  0.0000000000000E+00  0.0000000000000E+00
   311  3.1000000000000E+00  0.0000000000000E+00  0.0000000000000E+00
   312  3.1100000000000E+00  0.0000000000000E+00  0.0000000000000E+00
   313  3.1200000000000E+00  0.0000000000000E+00  0.0000000000000E+00
   314  3.1300000000000E+00  0.0000000000000E+00  0.0000000000000E+00
   315  3.1400000000000E+00  0.0000000000000E+00  0.0000000000000E+00
   316  3.1500000000000E+00  0.0000000000000E+00  0.0000000000000E+00
   317  3.1600000000000E+00  0.0000000000000E+00  0.0000000000000E+00
   318  3.1700000000000E+00  0.0000000000000E+00  0.0000000000000E+00
   319  3.1800000000000E+00  0.0000000000000E+00  0.0000000000000E+00
   320  3.1900000000000E+00  0.0000000000000E+00  0.0000000000000E+00
   321  3.2000000000000E+00  0.0000000000000E+00  0.0000000000000E+00
   322  3.2100000000000E+00  0.0000000000000E+00  0.0000000000000E+00
   323  3.2200000000000E+00  0.0000000000000E+00  0.0000000000000E+00
   324  3.2300000000000E+00  0.0000000000000E+00  0.0000000000000E+00
   325  3.2400000000000E+00  0.0000000000000E+00  0.0000000000000E+00
   326  3.2500000000000E+00  0.0000000000000E+00  0.0000000000000E+00
   327  3.2600000000000E+00  0.0000000000000E+00  0.0000000000000E+00
   328  3.2700000000000E+00  0.0000000000000E+00  0.0000000000000E+00
   329  3.2800000000000E+00  0.0000000000000E+00  0.0000000000000E+00
   330  3.2900000000000E+00  0.0000000000000E+00  0.0000000000000E+00
   331  3.3000000000000E+00  0.0000000000000E+00  0.0000000000000E+00
   332  3.3100000000000E+00  0.0000000000000E+00  0.0000000000000E+00
   333  3.3200000000000E+00  0.0000000000000E+00  0.0000000000000E+00
   334  3.3300000000000E+00  0.0000000000000E+00  0.0000000000000E+00
   335  3.3400000000000E+00  0.0000000000000E+00  0.0000000000000E+00
   336  3.3500000000000E+00  0.0000000000000E+00  0.0000000000000E+00
   337  3.3600000000000E+00  0.0000000000000E+00  0.0000000000000E+00
   338  3.3700000000000E+00  0.0000000000000E+00  0.0000000000000E+00
   339  3.3800000000000E+00  0.0000000000000E+00  0.0000000000000E+00
   340  3.3900000000000E+00  0.0000000000000E+00  0.0000000000000E+00
   341  3.4000000000000E+00  0.0000000000000E+00  0.0000000000000E+00
   342  3.4100000000000E+00  0.0000000000000E+00  0.0000000000000E+00
   343  3.4200000000000E+00  0.0000000000000E+00  0.0000000000000E+00
   344  3.4300000000000E+00  0.0000000000000E+00  0.0000000000000E+00
   345  3.4400000000000E+00  0.0000000000000E+00  0.0000000000000E+00
   346  3.4500000000000E+00  0.0000000000000E+00  0.0000000000000E+00
   347  3.4600000000000E+00  0.0000000000000E+00  0.0000000000000E+00
   348  3.4700000000000E+00  0.0000000000000E+00  0.0000000000000E+00
   349  3.4800000000000E+00  0.0000000000000E+00  0.0000000000000E+00
   350  3.4900000000000E+00  0.0000000000000E+00  0.0000000000000E+00
   351  3.5000000000000E+00  0.0000000000000E+00  0.0000000000000E+00
   352  3.5100000000000E+00  0.0000000000000E+00  0.0000000000000E+00
   353  3.5200000000000E+00  0.0000000000000E+00  0.0000000000000E+00
   354  3.5300000000000E+00  0.0000000000000E+00  0.0000000000000E+00
   355  3.5400000000000E+00  0.0000000000000E+00  0.0000000000000E+00
   356  3.5500000000000E+00  0.0000000000000E+00  0.0000000000000E+00
   357  3.5600000000000E+00  0.0000000000000E+00  0.0000000000000E+00
   358  3.5700000000000E+00  0.0000000000000E+00  0.0000000000000E+00
   359  3.5800000000000E+00  0.0000000000000E+00  0.0000000000000E+00
   360  3.5900000000000E+00  0.0000000000000E+00  0.0000000000000E+00
   361  3.6000000000000E+00  0.0000000000000E+00  0.0000000000000E+00
   362  3.6100000000000E+00  0.0000000000000E+00  0.0000000000000E+00
   363  3.6200000000000E+00  0.0000000000000E+00  0.0000000000000E+00
   364  3.6300000000000E+00  0.0000000000000E+00  0.0000000000000E+00
   365  3.6400000000000E+00  0.0000000000000E+00  0.0000000000000E+00
   366  3.6500000000000E+00  0.0000000000000E+00  0.0000000000000E+00
   367  3.6600000000000E+00  0.0000000000000E+00  0.0000000000000E+00
   368  3.6700000000000E+00  0.0000000000000E+00  0.0000000000000E+00
   369  3.6800000000000E+00  0.0000000000000E+00  0.0000000000000E+00
   370  3.6900000000000E+00  0.0000000000000E+00  0.0000000000000E+00
   371  3.7000000000000E+00  0.0000000000000E+00  0.0000000000000E+00
   372  3.7100000000000E+00  0.0000000000000E+00  0.0000000000000E+00
   373  3.7200000000000E+00  0.0000000000000E+00  0.0000000000000E+00
   374  3.7300000000000E+00  0.0000000000000E+00  0.0000000000000E+00
   375  3.7400000000000E+00  0.0000000000000E+00  0.0000000000000E+00
   376  3.7500000000000E+00  0.0000000000000E+00  0.0000000000000E+00
   377  3.7600000000000E+00  0.0000000000000E+00  0.0000000000000E+00
   378  3.7700000000000E+00  0.0000000000000E+00  0.0000000000000E+00
   379  3.7800000000000E+00  0.0000000000000E+00  0.0000000000000E+00
   380  3.7900000000000E+00  0.0000000000000E+00  0.0000000000000E+00
   381  3.8000000000000E+00  0.0000000000000E+00  0.0000000000000E+00
   382  3.8100000000000E+00  0.0000000000000E+00  0.0000000000000E+00
   383  3.8200000000000E+00  0.0000000000000E+00  0.0000000000000E+00
   384  3.8300000000000E+00  0.0000000000000E+00  0.0000000000000E+00
   385  3.8400000000000E+00  0.0000000000000E+00  0.0000000000000E+00
   386  3.8500000000000E+00  0.0000000000000E+00  0.0000000000000E+00
   387  3.8600000000000E+00  0.0000000000000E+00  0.0000000000000E+00
   388  3.8700000000000E+00  0.0000000000000E+00  0.0000000000000E+00
   389  3.8800000000000E+00  0.0000000000000E+00  0.0000000000000E+00
   390  3.8900000000000E+00  0.0000000000000E+00  0.0000000000000E+00
   391  3.9000000000000E+00  0.0000000000000E+00  0.0000000000000E+00
   392  3.9100000000000E+00  0.0000000000000E+00  0.0000000000000E+00
   393  3.9200000000000E+00  0.0000000000000E+00  0.0000000000000E+00
   394  3.9300000000000E+00  0.0000000000000E+00  0.0000000000000E+00
   395  3.9400000000000E+00  0.0000000000000E+00  0.0000000000000E+00
   396  3.9500000000000E+00  0.0000000000000E+00  0.0000000000000E+00
   397  3.9600000000000E+00  0.0000000000000E+00  0.0000000000000E+00
   398  3.9700000000000E+00  0.0000000000000E+00  0.0000000000000E+00
   399  3.9800000000000E+00  0.0000000000000E+00  0.0000000000000E+00
   400  3.9900000000000E+00  0.0000000000000E+00  0.0000000000000E+00
   401  4.0000000000000E+00  0.0000000000000E+00  0.0000000000000E+00
   402  4.0100000000000E+00  0.0000000000000E+00  0.0000000000000E+00
   403  4.0200000000000E+00  0.0000000000000E+00  0.0000000000000E+00
   404  4.0300000000000E+00  0.0000000000000E+00  0.0000000000000E+00
   405  4.0400000000000E+00  0.0000000000000E+00  0.0000000000000E+00
   406  4.0500000000000E+00  0.0000000000000E+00  0.0000000000000E+00
   407  4.0600000000000E+00  0.0000000000000E+00  0.0000000000000E+00
   408  4.0700000000000E+00  0.0000000000000E+00  0.0000000000000E+00
   409  4.0800000000000E+00  0.0000000000000E+00  0.0000000000000E+00
   410  4.0900000000000E+00  0.0000000000000E+00  0.0000000000000E+00
   411  4.1000000000000E+00  0.0000000000000E+00  0.0000000000000E+00
   412  4.1100000000000E+00  0.0000000000000E+00  0.0000000000000E+00
   413  4.1200000000000E+00  0.0000000000000E+00  0.0000000000000E+00
   414  4.1300000000000E+00  0.0000000000000E+00  0.0000000000000E+00
   415  4.1400000000000E+00  0.0000000000000E+00  0.0000000000000E+00
   416  4.1500000000000E+00  0.0000000000000E+00  0.0000000000000E+00
   417  4.1600000000000E+00  0.0000000000000E+00  0.0000000000000E+00
   418  4.1700000000000E+00  0.0000000000000E+00  0.0000000000000E+00
   419  4.1800000000000E+00  0.0000000000000E+00  0.0000000000000E+00
   420  4.1900000000000E+00  0.0000000000000E+00  0.0000000000000E+00
   421  4.2000000000000E+00  0.0000000000000E+00  0.0000000000000E+00
   422  4.2100000000000E+00  0.0000000000000E+00  0.0000000000000E+00
   423  4.2200000000000E+00  0.0000000000000E+00  0.0000000000000E+00