V   ONCVPSP-2.1.1   r_core=    1.72984 1.97239 2.02001
    23.0000   13.0000   150105   zatom,zion,pspd
    8   11   2   4   600   0   pspcod,pspxc,lmax,lloc,mmax,r2well
    5.99000000   0.00000000   0.00000000   rchrg fchrg qchrg
    2   2   2   0   0   nproj
    1   1   extension_switch
       0                         3.4455699139000E+00 -5.4701838985000E-01
     1  0.0000000000000E+00  0.0000000000000E+00  0.0000000000000E+00
     2  1.0000000000000E-02  3.0066750647000E-02 -3.7772282440000E-02
     3  2.0000000000000E-02  6.0278517749000E-02 -7.5163341229000E-02
     4  3.0000000000000E-02  9.0778295896000E-02 -1.1179515543000E-01
     5  4.0000000000000E-02  1.2170505533000E-01 -1.4729608097000E-01
     6  5.0000000000000E-02  1.5319177810000E-01 -1.8130396781000E-01
     7  6.0000000000000E-02  1.8536355162000E-01 -2.1346919248000E-01
     8  7.0000000000000E-02  2.1833573815000E-01 -2.4345757879000E-01
     9  8.0000000000000E-02  2.5221223762000E-01 -2.7095318092000E-01
    10  9.0000000000000E-02  2.8708386084000E-01 -2.9566090392000E-01
    11  1.0000000000000E-01  3.2302682871000E-01 -3.1730893864000E-01
    12  1.1000000000000E-01  3.6010141218000E-01 -3.3565098944000E-01
    13  1.2000000000000E-01  3.9835072633000E-01 -3.5046827506000E-01
    14  1.3000000000000E-01  4.3779969041000E-01 -3.6157128536000E-01
    15  1.4000000000000E-01  4.7845416475000E-01 -3.6880127798000E-01
    16  1.5000000000000E-01  5.2030027253000E-01 -3.7203150341000E-01
    17  1.6000000000000E-01  5.6330391478000E-01 -3.7116814595000E-01
    18  1.7000000000000E-01  6.0741048259000E-01 -3.6615097559000E-01
    19  1.8000000000000E-01  6.5254477172000E-01 -3.5695370258000E-01
    20  1.9000000000000E-01  6.9861110005000E-01 -3.4358403486000E-01
    21  2.0000000000000E-01  7.4549362848000E-01 -3.2608343727000E-01
    22  2.1000000000000E-01  7.9305688322000E-01 -3.0452659610000E-01
    23  2.2000000000000E-01  8.4114647581000E-01 -2.7902059435000E-01
    24  2.3000000000000E-01  8.8959001480000E-01 -2.4970380672000E-01
    25  2.4000000000000E-01  9.3819820243000E-01 -2.1674452460000E-01
    26  2.5000000000000E-01  9.8676610825000E-01 -1.8033932310000E-01
    27  2.6000000000000E-01  1.0350746038000E+00 -1.4071119219000E-01
    28  2.7000000000000E-01  1.0828919551000E+00 -9.8107439483000E-02
    29  2.8000000000000E-01  1.1299755533000E+00 -5.2797390663000E-02
    30  2.9000000000000E-01  1.1760737671000E+00 -5.0699131714000E-03
    31  3.0000000000000E-01  1.2209279072000E+00  4.4769223211000E-02
    32  3.1000000000000E-01  1.2642742772000E+00  9.6400112204000E-02
    33  3.2000000000000E-01  1.3058463051000E+00  1.4949159306000E-01
    34  3.3000000000000E-01  1.3453767392000E+00  2.0370422605000E-01
    35  3.4000000000000E-01  1.3825998314000E+00  2.5869325652000E-01
    36  3.5000000000000E-01  1.4172536314000E+00  3.1411172961000E-01
    37  3.6000000000000E-01  1.4490821428000E+00  3.6961342234000E-01
    38  3.7000000000000E-01  1.4778376298000E+00  4.2485597724000E-01
    39  3.8000000000000E-01  1.5032827088000E+00  4.7950374685000E-01
    40  3.9000000000000E-01  1.5251924684000E+00  5.3323067194000E-01
    41  4.0000000000000E-01  1.5433565403000E+00  5.8572309399000E-01
    42  4.1000000000000E-01  1.5575810023000E+00  6.3668233439000E-01
    43  4.2000000000000E-01  1.5676901903000E+00  6.8582715039000E-01
    44  4.3000000000000E-01  1.5735283923000E+00  7.3289602527000E-01
    45  4.4000000000000E-01  1.5749613886000E+00  7.7764924963000E-01
    46  4.5000000000000E-01  1.5718778331000E+00  8.1987078351000E-01
    47  4.6000000000000E-01  1.5641904521000E+00  8.5936987079000E-01
    48  4.7000000000000E-01  1.5518370620000E+00  8.9598240645000E-01
    49  4.8000000000000E-01  1.5347814798000E+00  9.2957215992000E-01
    50  4.9000000000000E-01  1.5130140781000E+00  9.6003151946000E-01
    51  5.0000000000000E-01  1.4865522192000E+00  9.8728207518000E-01
    52  5.1000000000000E-01  1.4554404470000E+00  1.0112748808000E+00
    53  5.2000000000000E-01  1.4197506797000E+00  1.0319907231000E+00
    54  5.3000000000000E-01  1.3795817518000E+00  1.0494395214000E+00
    55  5.4000000000000E-01  1.3350591473000E+00  1.0636599967000E+00
    56  5.5000000000000E-01  1.2863344081000E+00  1.0747189181000E+00
    57  5.6000000000000E-01  1.2335841480000E+00  1.0827098273000E+00
    58  5.7000000000000E-01  1.1770092584000E+00  1.0877520552000E+00
    59  5.8000000000000E-01  1.1168334883000E+00  1.0899888907000E+00
    60  5.9000000000000E-01  1.0533022096000E+00  1.0895860611000E+00
    61  6.0000000000000E-01  9.8668080056000E-01  1.0867296800000E+00
    62  6.1000000000000E-01  9.1725295071000E-01  1.0816241610000E+00
    63  6.2000000000000E-01  8.4531878449000E-01  1.0744899008000E+00
    64  6.3000000000000E-01  7.7119309604000E-01  1.0655611079000E+00
    65  6.4000000000000E-01  6.9520288914000E-01  1.0550828449000E+00
    66  6.5000000000000E-01  6.1768552163000E-01  1.0433087895000E+00
    67  6.6000000000000E-01  5.3898660507000E-01  1.0304987440000E+00
    68  6.7000000000000E-01  4.5945720108000E-01  1.0169153492000E+00
    69  6.8000000000000E-01  3.7945184585000E-01  1.0028218068000E+00
    70  6.9000000000000E-01  2.9932622471000E-01  9.8847923127000E-01
    71  7.0000000000000E-01  2.1943501904000E-01  9.7414423929000E-01
    72  7.1000000000000E-01  1.4012895216000E-01  9.6006566874000E-01
    73  7.2000000000000E-01  6.1752949868000E-02  9.4648263481000E-01
    74  7.3000000000000E-01 -1.5356050080000E-02  9.3362222832000E-01
    75  7.4000000000000E-01 -9.0871312490000E-02  9.2169724303000E-01
    76  7.5000000000000E-01 -1.6447836162000E-01  9.1090414038000E-01
    77  7.6000000000000E-01 -2.3587679754000E-01  9.0142133654000E-01
    78  7.7000000000000E-01 -3.0478238368000E-01  8.9340726137000E-01
    79  7.8000000000000E-01 -3.7092877448000E-01  8.8699888523000E-01
    80  7.9000000000000E-01 -4.3406873167000E-01  8.8231084622000E-01
    81  8.0000000000000E-01 -4.9397565160000E-01  8.7943431053000E-01
    82  8.1000000000000E-01 -5.5044477721000E-01  8.7843623453000E-01
    83  8.2000000000000E-01 -6.0329423336000E-01  8.7935887633000E-01
    84  8.3000000000000E-01 -6.5236587891000E-01  8.8221955961000E-01
    85  8.4000000000000E-01 -6.9752597123000E-01  8.8701069027000E-01
    86  8.5000000000000E-01 -7.3866564003000E-01  8.9370002393000E-01
    87  8.6000000000000E-01 -7.7570116926000E-01  9.0223117971000E-01
    88  8.7000000000000E-01 -8.0857408731000E-01  9.1252439352000E-01
    89  8.8000000000000E-01 -8.3725106758000E-01  9.2447750155000E-01
    90  8.9000000000000E-01 -8.6172364290000E-01  9.3796714258000E-01
    91  9.0000000000000E-01 -8.8200773892000E-01  9.5285016544000E-01
    92  9.1000000000000E-01 -8.9814303322000E-01  9.6896522570000E-01
    93  9.2000000000000E-01 -9.1019214852000E-01  9.8613455384000E-01
    94  9.3000000000000E-01 -9.1823962743000E-01  1.0041658785000E+00
    95  9.4000000000000E-01 -9.2239088760000E-01  1.0228543927000E+00
    96  9.5000000000000E-01 -9.2277126378000E-01  1.0419849989000E+00
    97  9.6000000000000E-01 -9.1952417768000E-01  1.0613346232000E+00
    98  9.7000000000000E-01 -9.1280984195000E-01  1.0806744898000E+00
    99  9.8000000000000E-01 -9.0280369188000E-01  1.0997724803000E+00
   100  9.9000000000000E-01 -8.8969474221000E-01  1.1183955044000E+00
   101  1.0000000000000E+00 -8.7368388706000E-01  1.1363118534000E+00
   102  1.0100000000000E+00 -8.5498234071000E-01  1.1532929235000E+00
   103  1.0200000000000E+00 -8.3380961841000E-01  1.1691167492000E+00
   104  1.0300000000000E+00 -8.1039157239000E-01  1.1835699181000E+00
   105  1.0400000000000E+00 -7.8495881696000E-01  1.1964491023000E+00
   106  1.0500000000000E+00 -7.5774491460000E-01  1.2075632642000E+00
   107  1.0600000000000E+00 -7.2898495328000E-01  1.2167349268000E+00
   108  1.0700000000000E+00 -6.9891391874000E-01  1.2238019677000E+00
   109  1.0800000000000E+00 -6.6776316065000E-01  1.2286221770000E+00
   110  1.0900000000000E+00 -6.3576085666000E-01  1.2310708323000E+00
   111  1.1000000000000E+00 -6.0312999065000E-01  1.2310429198000E+00
   112  1.1100000000000E+00 -5.7008860227000E-01  1.2284519089000E+00
   113  1.1200000000000E+00 -5.3684400925000E-01  1.2232367673000E+00
   114  1.1300000000000E+00 -5.0359471455000E-01  1.2153576406000E+00
   115  1.1400000000000E+00 -4.7052949150000E-01  1.2047961429000E+00
   116  1.1500000000000E+00 -4.3782840584000E-01  1.1915535435000E+00
   117  1.1600000000000E+00 -4.0565509331000E-01  1.1756583589000E+00
   118  1.1700000000000E+00 -3.7416156212000E-01  1.1571591848000E+00
   119  1.1800000000000E+00 -3.4348803711000E-01  1.1361242117000E+00
   120  1.1900000000000E+00 -3.1376201839000E-01  1.1126415704000E+00
   121  1.2000000000000E+00 -2.8509220204000E-01  1.0868225635000E+00
   122  1.2100000000000E+00 -2.5757584485000E-01  1.0587938915000E+00
   123  1.2200000000000E+00 -2.3129928259000E-01  1.0286974640000E+00
   124  1.2300000000000E+00 -2.0632837991000E-01  9.9669440685000E-01
   125  1.2400000000000E+00 -1.8271748358000E-01  9.6295726739000E-01
   126  1.2500000000000E+00 -1.6051059479000E-01  9.2766987101000E-01
   127  1.2600000000000E+00 -1.3973381975000E-01  8.9102777441000E-01
   128  1.2700000000000E+00 -1.2040148720000E-01  8.5323319821000E-01
   129  1.2800000000000E+00 -1.0251935578000E-01  8.1449542835000E-01
   130  1.2900000000000E+00 -8.6077470500000E-02  7.7502741848000E-01
   131  1.3000000000000E+00 -7.1056409805000E-02  7.3504273237000E-01
   132  1.3100000000000E+00 -5.7429857456000E-02  6.9475888442000E-01
   133  1.3200000000000E+00 -4.5158229815000E-02  6.5438670628000E-01
   134  1.3300000000000E+00 -3.4196326336000E-02  6.1413393077000E-01
   135  1.3400000000000E+00 -2.4492627924000E-02  5.7420837403000E-01
   136  1.3500000000000E+00 -1.5987070695000E-02  5.3479999773000E-01
   137  1.3600000000000E+00 -8.6165690383000E-03  4.9609734814000E-01
   138  1.3700000000000E+00 -2.3126935350000E-03  4.5827719912000E-01
   139  1.3800000000000E+00  2.9955640900000E-03  4.2149704415000E-01
   140  1.3900000000000E+00  7.3823159272000E-03  3.8591433911000E-01
   141  1.4000000000000E+00  1.0922259822000E-02  3.5165702984000E-01
   142  1.4100000000000E+00  1.3690928411000E-02  3.1884607079000E-01
   143  1.4200000000000E+00  1.5764756482000E-02  2.8758809769000E-01
   144  1.4300000000000E+00  1.7216416142000E-02  2.5796153095000E-01
   145  1.4400000000000E+00  1.8121400825000E-02  2.3004600361000E-01
   146  1.4500000000000E+00  1.8547860078000E-02  2.0388369435000E-01
   147  1.4600000000000E+00  1.8564843912000E-02  1.7951429334000E-01
   148  1.4700000000000E+00  1.8236890876000E-02  1.5695464976000E-01
   149  1.4800000000000E+00  1.7623156340000E-02  1.3620253773000E-01
   150  1.4900000000000E+00  1.6783396378000E-02  1.1724973720000E-01
   151  1.5000000000000E+00  1.5765826951000E-02  1.0005762705000E-01
   152  1.5100000000000E+00  1.4622702060000E-02  8.4590510435000E-02
   153  1.5200000000000E+00  1.3393015944000E-02  7.0783419472000E-02
   154  1.5300000000000E+00  1.2117990469000E-02  5.8571846605000E-02
   155  1.5400000000000E+00  1.0829526715000E-02  4.7872750216000E-02
   156  1.5500000000000E+00  9.5571354515000E-03  3.8598435156000E-02
   157  1.5600000000000E+00  8.3255928859000E-03  3.0651256460000E-02
   158  1.5700000000000E+00  7.1535810451000E-03  2.3928774575000E-02
   159  1.5800000000000E+00  6.0588513316000E-03  1.8322646779000E-02
   160  1.5900000000000E+00  5.0507157718000E-03  1.3724485446000E-02
   161  1.6000000000000E+00  4.1402072186000E-03  1.0019736422000E-02
   162  1.6100000000000E+00  3.3290541655000E-03  7.1025337371000E-03
   163  1.6200000000000E+00  2.6221201991000E-03  4.8571489245000E-03
   164  1.6300000000000E+00  2.0155166224000E-03  3.1875095930000E-03
   165  1.6400000000000E+00  1.5085064440000E-03  1.9831763042000E-03
   166  1.6500000000000E+00  1.0935916575000E-03  1.1628486241000E-03
   167  1.6600000000000E+00  7.6543117026000E-04  6.2835962461000E-04
   168  1.6700000000000E+00  5.1435622992000E-04  3.1716365401000E-04
   169  1.6800000000000E+00  3.3179478158000E-04  1.4853224273000E-04
   170  1.6900000000000E+00  2.0695669466000E-04  8.2865433022000E-05
   171  1.7000000000000E+00  1.2935465226000E-04  6.0437810070000E-05
   172  1.7100000000000E+00  8.8078176440000E-05  6.8090254279000E-05
   173  1.7200000000000E+00  7.4043229976000E-05  7.4180024226000E-05
   174  1.7300000000000E+00  6.6868831696000E-05  7.3524144510000E-05
   175  1.7400000000000E+00  3.3254003516000E-05  3.8546388501000E-05
   176  1.7500000000000E+00  1.5709381856000E-06  1.8821909236000E-06
   177  1.7600000000000E+00 -4.4967151525000E-06 -4.9389597762000E-06
   178  1.7700000000000E+00 -9.0041756975000E-07 -9.8897217368000E-07
   179  1.7800000000000E+00  0.0000000000000E+00  0.0000000000000E+00
   180  1.7900000000000E+00  0.0000000000000E+00  0.0000000000000E+00
   181  1.8000000000000E+00  0.0000000000000E+00  0.0000000000000E+00
   182  1.8100000000000E+00  0.0000000000000E+00  0.0000000000000E+00
   183  1.8200000000000E+00  0.0000000000000E+00  0.0000000000000E+00
   184  1.8300000000000E+00  0.0000000000000E+00  0.0000000000000E+00
   185  1.8400000000000E+00  0.0000000000000E+00  0.0000000000000E+00
   186  1.8500000000000E+00  0.0000000000000E+00  0.0000000000000E+00
   187  1.8600000000000E+00  0.0000000000000E+00  0.0000000000000E+00
   188  1.8700000000000E+00  0.0000000000000E+00  0.0000000000000E+00
   189  1.8800000000000E+00  0.0000000000000E+00  0.0000000000000E+00
   190  1.8900000000000E+00  0.0000000000000E+00  0.0000000000000E+00
   191  1.9000000000000E+00  0.0000000000000E+00  0.0000000000000E+00
   192  1.9100000000000E+00  0.0000000000000E+00  0.0000000000000E+00
   193  1.9200000000000E+00  0.0000000000000E+00  0.0000000000000E+00
   194  1.9300000000000E+00  0.0000000000000E+00  0.0000000000000E+00
   195  1.9400000000000E+00  0.0000000000000E+00  0.0000000000000E+00
   196  1.9500000000000E+00  0.0000000000000E+00  0.0000000000000E+00
   197  1.9600000000000E+00  0.0000000000000E+00  0.0000000000000E+00
   198  1.9700000000000E+00  0.0000000000000E+00  0.0000000000000E+00
   199  1.9800000000000E+00  0.0000000000000E+00  0.0000000000000E+00
   200  1.9900000000000E+00  0.0000000000000E+00  0.0000000000000E+00
   201  2.0000000000000E+00  0.0000000000000E+00  0.0000000000000E+00
   202  2.0100000000000E+00  0.0000000000000E+00  0.0000000000000E+00
   203  2.0200000000000E+00  0.0000000000000E+00  0.0000000000000E+00
   204  2.0300000000000E+00  0.0000000000000E+00  0.0000000000000E+00
   205  2.0400000000000E+00  0.0000000000000E+00  0.0000000000000E+00
   206  2.0500000000000E+00  0.0000000000000E+00  0.0000000000000E+00
   207  2.0600000000000E+00  0.0000000000000E+00  0.0000000000000E+00
   208  2.0700000000000E+00  0.0000000000000E+00  0.0000000000000E+00
   209  2.0800000000000E+00  0.0000000000000E+00  0.0000000000000E+00
   210  2.0900000000000E+00  0.0000000000000E+00  0.0000000000000E+00
   211  2.1000000000000E+00  0.0000000000000E+00  0.0000000000000E+00
   212  2.1100000000000E+00  0.0000000000000E+00  0.0000000000000E+00
   213  2.1200000000000E+00  0.0000000000000E+00  0.0000000000000E+00
   214  2.1300000000000E+00  0.0000000000000E+00  0.0000000000000E+00
   215  2.1400000000000E+00  0.0000000000000E+00  0.0000000000000E+00
   216  2.1500000000000E+00  0.0000000000000E+00  0.0000000000000E+00
   217  2.1600000000000E+00  0.0000000000000E+00  0.0000000000000E+00
   218  2.1700000000000E+00  0.0000000000000E+00  0.0000000000000E+00
   219  2.1800000000000E+00  0.0000000000000E+00  0.0000000000000E+00
   220  2.1900000000000E+00  0.0000000000000E+00  0.0000000000000E+00
   221  2.2000000000000E+00  0.0000000000000E+00  0.0000000000000E+00
   222  2.2100000000000E+00  0.0000000000000E+00  0.0000000000000E+00
   223  2.2200000000000E+00  0.0000000000000E+00  0.0000000000000E+00
   224  2.2300000000000E+00  0.0000000000000E+00  0.0000000000000E+00
   225  2.2400000000000E+00  0.0000000000000E+00  0.0000000000000E+00
   226  2.2500000000000E+00  0.0000000000000E+00  0.0000000000000E+00
   227  2.2600000000000E+00  0.0000000000000E+00  0.0000000000000E+00
   228  2.2700000000000E+00  0.0000000000000E+00  0.0000000000000E+00
   229  2.2800000000000E+00  0.0000000000000E+00  0.0000000000000E+00
   230  2.2900000000000E+00  0.0000000000000E+00  0.0000000000000E+00
   231  2.3000000000000E+00  0.0000000000000E+00  0.0000000000000E+00
   232  2.3100000000000E+00  0.0000000000000E+00  0.0000000000000E+00
   233  2.3200000000000E+00  0.0000000000000E+00  0.0000000000000E+00
   234  2.3300000000000E+00  0.0000000000000E+00  0.0000000000000E+00
   235  2.3400000000000E+00  0.0000000000000E+00  0.0000000000000E+00
   236  2.3500000000000E+00  0.0000000000000E+00  0.0000000000000E+00
   237  2.3600000000000E+00  0.0000000000000E+00  0.0000000000000E+00
   238  2.3700000000000E+00  0.0000000000000E+00  0.0000000000000E+00
   239  2.3800000000000E+00  0.0000000000000E+00  0.0000000000000E+00
   240  2.3900000000000E+00  0.0000000000000E+00  0.0000000000000E+00
   241  2.4000000000000E+00  0.0000000000000E+00  0.0000000000000E+00
   242  2.4100000000000E+00  0.0000000000000E+00  0.0000000000000E+00
   243  2.4200000000000E+00  0.0000000000000E+00  0.0000000000000E+00
   244  2.4300000000000E+00  0.0000000000000E+00  0.0000000000000E+00
   245  2.4400000000000E+00  0.0000000000000E+00  0.0000000000000E+00
   246  2.4500000000000E+00  0.0000000000000E+00  0.0000000000000E+00
   247  2.4600000000000E+00  0.0000000000000E+00  0.0000000000000E+00
   248  2.4700000000000E+00  0.0000000000000E+00  0.0000000000000E+00
   249  2.4800000000000E+00  0.0000000000000E+00  0.0000000000000E+00
   250  2.4900000000000E+00  0.0000000000000E+00  0.0000000000000E+00
   251  2.5000000000000E+00  0.0000000000000E+00  0.0000000000000E+00
   252  2.5100000000000E+00  0.0000000000000E+00  0.0000000000000E+00
   253  2.5200000000000E+00  0.0000000000000E+00  0.0000000000000E+00
   254  2.5300000000000E+00  0.0000000000000E+00  0.0000000000000E+00
   255  2.5400000000000E+00  0.0000000000000E+00  0.0000000000000E+00
   256  2.5500000000000E+00  0.0000000000000E+00  0.0000000000000E+00
   257  2.5600000000000E+00  0.0000000000000E+00  0.0000000000000E+00
   258  2.5700000000000E+00  0.0000000000000E+00  0.0000000000000E+00
   259  2.5800000000000E+00  0.0000000000000E+00  0.0000000000000E+00
   260  2.5900000000000E+00  0.0000000000000E+00  0.0000000000000E+00
   261  2.6000000000000E+00  0.0000000000000E+00  0.0000000000000E+00
   262  2.6100000000000E+00  0.0000000000000E+00  0.0000000000000E+00
   263  2.6200000000000E+00  0.0000000000000E+00  0.0000000000000E+00
   264  2.6300000000000E+00  0.0000000000000E+00  0.0000000000000E+00
   265  2.6400000000000E+00  0.0000000000000E+00  0.0000000000000E+00
   266  2.6500000000000E+00  0.0000000000000E+00  0.0000000000000E+00
   267  2.6600000000000E+00  0.0000000000000E+00  0.0000000000000E+00
   268  2.6700000000000E+00  0.0000000000000E+00  0.0000000000000E+00
   269  2.6800000000000E+00  0.0000000000000E+00  0.0000000000000E+00
   270  2.6900000000000E+00  0.0000000000000E+00  0.0000000000000E+00
   271  2.7000000000000E+00  0.0000000000000E+00  0.0000000000000E+00
   272  2.7100000000000E+00  0.0000000000000E+00  0.0000000000000E+00
   273  2.7200000000000E+00  0.0000000000000E+00  0.0000000000000E+00
   274  2.7300000000000E+00  0.0000000000000E+00  0.0000000000000E+00
   275  2.7400000000000E+00  0.0000000000000E+00  0.0000000000000E+00
   276  2.7500000000000E+00  0.0000000000000E+00  0.0000000000000E+00
   277  2.7600000000000E+00  0.0000000000000E+00  0.0000000000000E+00
   278  2.7700000000000E+00  0.0000000000000E+00  0.0000000000000E+00
   279  2.7800000000000E+00  0.0000000000000E+00  0.0000000000000E+00
   280  2.7900000000000E+00  0.0000000000000E+00  0.0000000000000E+00
   281  2.8000000000000E+00  0.0000000000000E+00  0.0000000000000E+00
   282  2.8100000000000E+00  0.0000000000000E+00  0.0000000000000E+00
   283  2.8200000000000E+00  0.0000000000000E+00  0.0000000000000E+00
   284  2.8300000000000E+00  0.0000000000000E+00  0.0000000000000E+00
   285  2.8400000000000E+00  0.0000000000000E+00  0.0000000000000E+00
   286  2.8500000000000E+00  0.0000000000000E+00  0.0000000000000E+00
   287  2.8600000000000E+00  0.0000000000000E+00  0.0000000000000E+00
   288  2.8700000000000E+00  0.0000000000000E+00  0.0000000000000E+00
   289  2.8800000000000E+00  0.0000000000000E+00  0.0000000000000E+00
   290  2.8900000000000E+00  0.0000000000000E+00  0.0000000000000E+00
   291  2.9000000000000E+00  0.0000000000000E+00  0.0000000000000E+00
   292  2.9100000000000E+00  0.0000000000000E+00  0.0000000000000E+00
   293  2.9200000000000E+00  0.0000000000000E+00  0.0000000000000E+00
   294  2.9300000000000E+00  0.0000000000000E+00  0.0000000000000E+00
   295  2.9400000000000E+00  0.0000000000000E+00  0.0000000000000E+00
   296  2.9500000000000E+00  0.0000000000000E+00  0.0000000000000E+00
   297  2.9600000000000E+00  0.0000000000000E+00  0.0000000000000E+00
   298  2.9700000000000E+00  0.0000000000000E+00  0.0000000000000E+00
   299  2.9800000000000E+00  0.0000000000000E+00  0.0000000000000E+00
   300  2.9900000000000E+00  0.0000000000000E+00  0.0000000000000E+00
   301  3.0000000000000E+00  0.0000000000000E+00  0.0000000000000E+00
   302  3.0100000000000E+00  0.0000000000000E+00  0.0000000000000E+00
   303  3.0200000000000E+00  0.0000000000000E+00  0.0000000000000E+00
   304  3.0300000000000E+00  0.0000000000000E+00  0.0000000000000E+00
   305  3.0400000000000E+00  0.0000000000000E+00  0.0000000000000E+00
   306  3.0500000000000E+00  0.0000000000000E+00  0.0000000000000E+00
   307  3.0600000000000E+00  0.0000000000000E+00  0.0000000000000E+00
   308  3.0700000000000E+00  0.0000000000000E+00  0.0000000000000E+00
   309  3.0800000000000E+00  0.0000000000000E+00  0.0000000000000E+00
   310  3.0900000000000E+00  0.0000000000000E+00  0.0000000000000E+00
   311  3.1000000000000E+00  0.0000000000000E+00  0.0000000000000E+00
   312  3.1100000000000E+00  0.0000000000000E+00  0.0000000000000E+00
   313  3.1200000000000E+00  0.0000000000000E+00  0.0000000000000E+00
   314  3.1300000000000E+00  0.0000000000000E+00  0.0000000000000E+00
   315  3.1400000000000E+00  0.0000000000000E+00  0.0000000000000E+00
   316  3.1500000000000E+00  0.0000000000000E+00  0.0000000000000E+00
   317  3.1600000000000E+00  0.0000000000000E+00  0.0000000000000E+00
   318  3.1700000000000E+00  0.0000000000000E+00  0.0000000000000E+00
   319  3.1800000000000E+00  0.0000000000000E+00  0.0000000000000E+00
   320  3.1900000000000E+00  0.0000000000000E+00  0.0000000000000E+00
   321  3.2000000000000E+00  0.0000000000000E+00  0.0000000000000E+00
   322  3.2100000000000E+00  0.0000000000000E+00  0.0000000000000E+00
   323  3.2200000000000E+00  0.0000000000000E+00  0.0000000000000E+00
   324  3.2300000000000E+00  0.0000000000000E+00  0.0000000000000E+00
   325  3.2400000000000E+00  0.0000000000000E+00  0.0000000000000E+00
   326  3.2500000000000E+00  0.0000000000000E+00  0.0000000000000E+00
   327  3.2600000000000E+00  0.0000000000000E+00  0.0000000000000E+00
   328  3.2700000000000E+00  0.0000000000000E+00  0.0000000000000E+00
   329  3.2800000000000E+00  0.0000000000000E+00  0.0000000000000E+00
   330  3.2900000000000E+00  0.0000000000000E+00  0.0000000000000E+00
   331  3.3000000000000E+00  0.0000000000000E+00  0.0000000000000E+00
   332  3.3100000000000E+00  0.0000000000000E+00  0.0000000000000E+00
   333  3.3200000000000E+00  0.0000000000000E+00  0.0000000000000E+00
   334  3.3300000000000E+00  0.0000000000000E+00  0.0000000000000E+00
   335  3.3400000000000E+00  0.0000000000000E+00  0.0000000000000E+00
   336  3.3500000000000E+00  0.0000000000000E+00  0.0000000000000E+00
   337  3.3600000000000E+00  0.0000000000000E+00  0.0000000000000E+00
   338  3.3700000000000E+00  0.0000000000000E+00  0.0000000000000E+00
   339  3.3800000000000E+00  0.0000000000000E+00  0.0000000000000E+00
   340  3.3900000000000E+00  0.0000000000000E+00  0.0000000000000E+00
   341  3.4000000000000E+00  0.0000000000000E+00  0.0000000000000E+00
   342  3.4100000000000E+00  0.0000000000000E+00  0.0000000000000E+00
   343  3.4200000000000E+00  0.0000000000000E+00  0.0000000000000E+00
   344  3.4300000000000E+00  0.0000000000000E+00  0.0000000000000E+00
   345  3.4400000000000E+00  0.0000000000000E+00  0.0000000000000E+00
   346  3.4500000000000E+00  0.0000000000000E+00  0.0000000000000E+00
   347  3.4600000000000E+00  0.0000000000000E+00  0.0000000000000E+00
   348  3.4700000000000E+00  0.0000000000000E+00  0.0000000000000E+00
   349  3.4800000000000E+00  0.0000000000000E+00  0.0000000000000E+00
   350  3.4900000000000E+00  0.0000000000000E+00  0.0000000000000E+00
   351  3.5000000000000E+00  0.0000000000000E+00  0.0000000000000E+00
   352  3.5100000000000E+00  0.0000000000000E+00  0.0000000000000E+00
   353  3.5200000000000E+00  0.0000000000000E+00  0.0000000000000E+00
   354  3.5300000000000E+00  0.0000000000000E+00  0.0000000000000E+00
   355  3.5400000000000E+00  0.0000000000000E+00  0.0000000000000E+00
   356  3.5500000000000E+00  0.0000000000000E+00  0.0000000000000E+00
   357  3.5600000000000E+00  0.0000000000000E+00  0.0000000000000E+00
   358  3.5700000000000E+00  0.0000000000000E+00  0.0000000000000E+00
   359  3.5800000000000E+00  0.0000000000000E+00  0.0000000000000E+00
   360  3.5900000000000E+00  0.0000000000000E+00  0.0000000000000E+00
   361  3.6000000000000E+00  0.0000000000000E+00  0.0000000000000E+00
   362  3.6100000000000E+00  0.0000000000000E+00  0.0000000000000E+00
   363  3.6200000000000E+00  0.0000000000000E+00  0.0000000000000E+00
   364  3.6300000000000E+00  0.0000000000000E+00  0.0000000000000E+00
   365  3.6400000000000E+00  0.0000000000000E+00  0.0000000000000E+00
   366  3.6500000000000E+00  0.0000000000000E+00  0.0000000000000E+00
   367  3.6600000000000E+00  0.0000000000000E+00  0.0000000000000E+00
   368  3.6700000000000E+00  0.0000000000000E+00  0.0000000000000E+00
   369  3.6800000000000E+00  0.0000000000000E+00  0.0000000000000E+00
   370  3.6900000000000E+00  0.0000000000000E+00  0.0000000000000E+00
   371  3.7000000000000E+00  0.0000000000000E+00  0.0000000000000E+00
   372  3.7100000000000E+00  0.0000000000000E+00  0.0000000000000E+00
   373  3.7200000000000E+00  0.0000000000000E+00  0.0000000000000E+00
   374  3.7300000000000E+00  0.0000000000000E+00  0.0000000000000E+00
   375  3.7400000000000E+00  0.0000000000000E+00  0.0000000000000E+00
   376  3.7500000000000E+00  0.0000000000000E+00  0.0000000000000E+00
   377  3.7600000000000E+00  0.0000000000000E+00  0.0000000000000E+00
   378  3.7700000000000E+00  0.0000000000000E+00  0.0000000000000E+00
   379  3.7800000000000E+00  0.0000000000000E+00  0.0000000000000E+00
   380  3.7900000000000E+00  0.0000000000000E+00  0.0000000000000E+00
   381  3.8000000000000E+00  0.0000000000000E+00  0.0000000000000E+00
   382  3.8100000000000E+00  0.0000000000000E+00  0.0000000000000E+00
   383  3.8200000000000E+00  0.0000000000000E+00  0.0000000000000E+00
   384  3.8300000000000E+00  0.0000000000000E+00  0.0000000000000E+00
   385  3.8400000000000E+00  0.0000000000000E+00  0.0000000000000E+00
   386  3.8500000000000E+00  0.0000000000000E+00  0.0000000000000E+00
   387  3.8600000000000E+00  0.0000000000000E+00  0.0000000000000E+00
   388  3.8700000000000E+00  0.0000000000000E+00  0.0000000000000E+00
   389  3.8800000000000E+00  0.0000000000000E+00  0.0000000000000E+00
   390  3.8900000000000E+00  0.0000000000000E+00  0.0000000000000E+00
   391  3.9000000000000E+00  0.0000000000000E+00  0.0000000000000E+00
   392  3.9100000000000E+00  0.0000000000000E+00  0.0000000000000E+00
   393  3.9200000000000E+00  0.0000000000000E+00  0.0000000000000E+00
   394  3.9300000000000E+00  0.0000000000000E+00  0.0000000000000E+00
   395  3.9400000000000E+00  0.0000000000000E+00  0.0000000000000E+00
   396  3.9500000000000E+00  0.0000000000000E+00  0.0000000000000E+00
   397  3.9600000000000E+00  0.0000000000000E+00  0.0000000000000E+00
   398  3.9700000000000E+00  0.0000000000000E+00  0.0000000000000E+00
   399  3.9800000000000E+00  0.0000000000000E+00  0.0000000000000E+00
   400  3.9900000000000E+00  0.0000000000000E+00  0.0000000000000E+00
   401  4.0000000000000E+00  0.0000000000000E+00  0.0000000000000E+00
   402  4.0100000000000E+00  0.0000000000000E+00  0.0000000000000E+00
   403  4.0200000000000E+00  0.0000000000000E+00  0.0000000000000E+00
   404  4.0300000000000E+00  0.0000000000000E+00  0.0000000000000E+00
   405  4.0400000000000E+00  0.0000000000000E+00  0.0000000000000E+00
   406  4.0500000000000E+00  0.0000000000000E+00  0.0000000000000E+00
   407  4.0600000000000E+00  0.0000000000000E+00  0.0000000000000E+00
   408  4.0700000000000E+00  0.0000000000000E+00  0.0000000000000E+00
   409  4.0800000000000E+00  0.0000000000000E+00  0.0000000000000E+00
   410  4.0900000000000E+00  0.0000000000000E+00  0.0000000000000E+00
   411  4.1000000000000E+00  0.0000000000000E+00  0.0000000000000E+00
   412  4.1100000000000E+00  0.0000000000000E+00  0.0000000000000E+00
   413  4.1200000000000E+00  0.0000000000000E+00  0.0000000000000E+00
   414  4.1300000000000E+00  0.0000000000000E+00  0.0000000000000E+00
   415  4.1400000000000E+00  0.0000000000000E+00  0.0000000000000E+00
   416  4.1500000000000E+00  0.0000000000000E+00  0.0000000000000E+00
   417  4.1600000000000E+00  0.0000000000000E+00  0.0000000000000E+00
   418  4.1700000000000E+00  0.0000000000000E+00  0.0000000000000E+00
   419  4.1800000000000E+00  0.0000000000000E+00  0.0000000000000E+00
   420  4.1900000000000E+00  0.0000000000000E+00  0.0000000000000E+00
   421  4.2000000000000E+00  0.0000000000000E+00  0.0000000000000E+00
   422  4.2100000000000E+00  0.0000000000000E+00  0.0000000000000E+00
   423  4.2200000000000E+00  0.0000000000000E+00  0.0000000000000E+00