Cr   ONCVPSP-2.1.1   r_core=    2.20727 2.37104 2.37104
    24.0000   14.0000   150105   zatom,zion,pspd
    8   11   2   4   600   0   pspcod,pspxc,lmax,lloc,mmax,r2well
    5.99000000   0.00000000   0.00000000   rchrg fchrg qchrg
    2   2   2   0   0   nproj
    1   1   extension_switch
       0                        -1.6987232778000E+00  1.1591540197500E+00
     1  0.0000000000000E+00  0.0000000000000E+00  0.0000000000000E+00
     2  1.0000000000000E-02  2.9498962580000E-02 -4.3489847738000E-02
     3  2.0000000000000E-02  5.8977047690000E-02 -8.6928698188000E-02
     4  3.0000000000000E-02  8.8413411000000E-02 -1.3026540471000E-01
     5  4.0000000000000E-02  1.1778727432000E-01 -1.7344852388000E-01
     6  5.0000000000000E-02  1.4707795832000E-01 -2.1642617194000E-01
     7  6.0000000000000E-02  1.7626491485000E-01 -2.5914588698000E-01
     8  7.0000000000000E-02  2.0532775868000E-01 -3.0155449872000E-01
     9  8.0000000000000E-02  2.3424629857000E-01 -3.4359800768000E-01
    10  9.0000000000000E-02  2.6300056758000E-01 -3.8522147552000E-01
    11  1.0000000000000E-01  2.9157085238000E-01 -4.2636892807000E-01
    12  1.1000000000000E-01  3.1993772152000E-01 -4.6698327273000E-01
    13  1.2000000000000E-01  3.4808205265000E-01 -5.0700623162000E-01
    14  1.3000000000000E-01  3.7598505828000E-01 -5.4637829186000E-01
    15  1.4000000000000E-01  4.0362831044000E-01 -5.8503867402000E-01
    16  1.5000000000000E-01  4.3099376363000E-01 -6.2292532011000E-01
    17  1.6000000000000E-01  4.5806377650000E-01 -6.5997490168000E-01
    18  1.7000000000000E-01  4.8482113173000E-01 -6.9612284910000E-01
    19  1.8000000000000E-01  5.1124905442000E-01 -7.3130340237000E-01
    20  1.9000000000000E-01  5.3733122866000E-01 -7.6544968418000E-01
    21  2.0000000000000E-01  5.6305181247000E-01 -7.9849379524000E-01
    22  2.1000000000000E-01  5.8839545087000E-01 -8.3036693209000E-01
    23  2.2000000000000E-01  6.1334728725000E-01 -8.6099952736000E-01
    24  2.3000000000000E-01  6.3789297288000E-01 -8.9032141225000E-01
    25  2.4000000000000E-01  6.6201867467000E-01 -9.1826200069000E-01
    26  2.5000000000000E-01  6.8571108111000E-01 -9.4475049416000E-01
    27  2.6000000000000E-01  7.0895740655000E-01 -9.6971610840000E-01
    28  2.7000000000000E-01  7.3174539364000E-01 -9.9308831744000E-01
    29  2.8000000000000E-01  7.5406331413000E-01 -1.0147971174000E+00
    30  2.9000000000000E-01  7.7589996816000E-01 -1.0347733068000E+00
    31  3.0000000000000E-01  7.9724468180000E-01 -1.0529487831000E+00
    32  3.1000000000000E-01  8.1808730329000E-01 -1.0692568528000E+00
    33  3.2000000000000E-01  8.3841819776000E-01 -1.0836325542000E+00
    34  3.3000000000000E-01  8.5822824068000E-01 -1.0960129880000E+00
    35  3.4000000000000E-01  8.7750881008000E-01 -1.1063376646000E+00
    36  3.5000000000000E-01  8.9625177771000E-01 -1.1145488460000E+00
    37  3.6000000000000E-01  9.1444949904000E-01 -1.1205919062000E+00
    38  3.7000000000000E-01  9.3209480270000E-01 -1.1244156744000E+00
    39  3.8000000000000E-01  9.4918097864000E-01 -1.1259728060000E+00
    40  3.9000000000000E-01  9.6570176615000E-01 -1.1252201238000E+00
    41  4.0000000000000E-01  9.8165134109000E-01 -1.1221189687000E+00
    42  4.1000000000000E-01  9.9702430276000E-01 -1.1166355418000E+00
    43  4.2000000000000E-01  1.0118156605000E+00 -1.1087412354000E+00
    44  4.3000000000000E-01  1.0260208204000E+00 -1.0984129536000E+00
    45  4.4000000000000E-01  1.0396355712000E+00 -1.0856334173000E+00
    46  4.5000000000000E-01  1.0526560717000E+00 -1.0703914538000E+00
    47  4.6000000000000E-01  1.0650788368000E+00 -1.0526822675000E+00
    48  4.7000000000000E-01  1.0769007252000E+00 -1.0325076891000E+00
    49  4.8000000000000E-01  1.0881189271000E+00 -1.0098764021000E+00
    50  4.9000000000000E-01  1.0987309525000E+00 -9.8480413432000E-01
    51  5.0000000000000E-01  1.1087346197000E+00 -9.5731385375000E-01
    52  5.1000000000000E-01  1.1181280454000E+00 -9.2743590766000E-01
    53  5.2000000000000E-01  1.1269096358000E+00 -8.9520811505000E-01
    54  5.3000000000000E-01  1.1350780779000E+00 -8.6067588060000E-01
    55  5.4000000000000E-01  1.1426323313000E+00 -8.2389224450000E-01
    56  5.5000000000000E-01  1.1495716249000E+00 -7.8491785419000E-01
    57  5.6000000000000E-01  1.1558954474000E+00 -7.4382103067000E-01
    58  5.7000000000000E-01  1.1616035493000E+00 -7.0067760983000E-01
    59  5.8000000000000E-01  1.1666959341000E+00 -6.5557095839000E-01
    60  5.9000000000000E-01  1.1711728635000E+00 -6.0859174824000E-01
    61  6.0000000000000E-01  1.1750348518000E+00 -5.5983787364000E-01
    62  6.1000000000000E-01  1.1782826721000E+00 -5.0941419350000E-01
    63  6.2000000000000E-01  1.1809173561000E+00 -4.5743232095000E-01
    64  6.3000000000000E-01  1.1829401992000E+00 -4.0401034174000E-01
    65  6.4000000000000E-01  1.1843527666000E+00 -3.4927251041000E-01
    66  6.5000000000000E-01  1.1851568986000E+00 -2.9334889671000E-01
    67  6.6000000000000E-01  1.1853547190000E+00 -2.3637500607000E-01
    68  6.7000000000000E-01  1.1849486446000E+00 -1.7849138932000E-01
    69  6.8000000000000E-01  1.1839413943000E+00 -1.1984321105000E-01
    70  6.9000000000000E-01  1.1823360005000E+00 -6.0579710971000E-02
    71  7.0000000000000E-01  1.1801358209000E+00 -8.5378020806000E-04
    72  7.1000000000000E-01  1.1773445512000E+00  5.9178578156000E-02
    73  7.2000000000000E-01  1.1739662374000E+00  1.1935876328000E-01
    74  7.3000000000000E-01  1.1700052911000E+00  1.7952619577000E-01
    75  7.4000000000000E-01  1.1654665036000E+00  2.3951890879000E-01
    76  7.5000000000000E-01  1.1603550595000E+00  2.9917408209000E-01
    77  7.6000000000000E-01  1.1546765520000E+00  3.5832867525000E-01
    78  7.7000000000000E-01  1.1484369974000E+00  4.1682004513000E-01
    79  7.8000000000000E-01  1.1416428501000E+00  4.7448656975000E-01
    80  7.9000000000000E-01  1.1343010167000E+00  5.3116827533000E-01
    81  8.0000000000000E-01  1.1264188698000E+00  5.8670746340000E-01
    82  8.1000000000000E-01  1.1180042618000E+00  6.4094933494000E-01
    83  8.2000000000000E-01  1.1090655374000E+00  6.9374260826000E-01
    84  8.3000000000000E-01  1.0996115452000E+00  7.4494012216000E-01
    85  8.4000000000000E-01  1.0896516489000E+00  7.9439944853000E-01
    86  8.5000000000000E-01  1.0791957370000E+00  8.4198347216000E-01
    87  8.6000000000000E-01  1.0682542302000E+00  8.8756090386000E-01
    88  8.7000000000000E-01  1.0568380894000E+00  9.3100689293000E-01
    89  8.8000000000000E-01  1.0449588208000E+00  9.7220350559000E-01
    90  8.9000000000000E-01  1.0326284795000E+00  1.0110402207000E+00
    91  9.0000000000000E-01  1.0198596715000E+00  1.0474143912000E+00
    92  9.1000000000000E-01  1.0066655533000E+00  1.0812316726000E+00
    93  9.2000000000000E-01  9.9305983069000E-01  1.1124064164000E+00
    94  9.3000000000000E-01  9.7905675392000E-01  1.1408620268000E+00
    95  9.4000000000000E-01  9.6467111188000E-01  1.1665312783000E+00
    96  9.5000000000000E-01  9.4991822347000E-01  1.1893565919000E+00
    97  9.6000000000000E-01  9.3481392692000E-01  1.2092902691000E+00
    98  9.7000000000000E-01  9.1937456671000E-01  1.2262946810000E+00
    99  9.8000000000000E-01  9.0361697831000E-01  1.2403422617000E+00
   100  9.9000000000000E-01  8.8755847234000E-01  1.2514159062000E+00
   101  1.0000000000000E+00  8.7121681205000E-01  1.2595090977000E+00
   102  1.0100000000000E+00  8.5461019082000E-01  1.2646255481000E+00
   103  1.0200000000000E+00  8.3775720791000E-01  1.2667793131000E+00
   104  1.0300000000000E+00  8.2067684185000E-01  1.2659947028000E+00
   105  1.0400000000000E+00  8.0338842685000E-01  1.2623059770000E+00
   106  1.0500000000000E+00  7.8591161700000E-01  1.2557575439000E+00
   107  1.0600000000000E+00  7.6826634095000E-01  1.2464038190000E+00
   108  1.0700000000000E+00  7.5047278172000E-01  1.2343084560000E+00
   109  1.0800000000000E+00  7.3255133602000E-01  1.2195442498000E+00
   110  1.0900000000000E+00  7.1452259880000E-01  1.2021926204000E+00
   111  1.1000000000000E+00  6.9640727498000E-01  1.1823438283000E+00
   112  1.1100000000000E+00  6.7822615037000E-01  1.1600960832000E+00
   113  1.1200000000000E+00  6.6000007049000E-01  1.1355549910000E+00
   114  1.1300000000000E+00  6.4174992102000E-01  1.1088331804000E+00
   115  1.1400000000000E+00  6.2349652700000E-01  1.0800500196000E+00
   116  1.1500000000000E+00  6.0526058184000E-01  1.0493307623000E+00
   117  1.1600000000000E+00  5.8706267671000E-01  1.0168059668000E+00
   118  1.1700000000000E+00  5.6892330703000E-01  9.8261131366000E-01
   119  1.1800000000000E+00  5.5086262443000E-01  9.4688645099000E-01
   120  1.1900000000000E+00  5.3290051172000E-01  9.0977440805000E-01
   121  1.2000000000000E+00  5.1505660725000E-01  8.7142147013000E-01
   122  1.2100000000000E+00  4.9735021358000E-01  8.3197654815000E-01
   123  1.2200000000000E+00  4.7980004511000E-01  7.9158903947000E-01
   124  1.2300000000000E+00  4.6242447030000E-01  7.5040985272000E-01
   125  1.2400000000000E+00  4.4524152457000E-01  7.0859158853000E-01
   126  1.2500000000000E+00  4.2826835434000E-01  6.6628387194000E-01
   127  1.2600000000000E+00  4.1152168485000E-01  6.2363639161000E-01
   128  1.2700000000000E+00  3.9501786806000E-01  5.8079952826000E-01
   129  1.2800000000000E+00  3.7877212618000E-01  5.3791727450000E-01
   130  1.2900000000000E+00  3.6279922363000E-01  4.9513272049000E-01
   131  1.3000000000000E+00  3.4711342958000E-01  4.5258797754000E-01
   132  1.3100000000000E+00  3.3172774715000E-01  4.1041613137000E-01
   133  1.3200000000000E+00  3.1665473164000E-01  3.6874904259000E-01
   134  1.3300000000000E+00  3.0190619778000E-01  3.2771453005000E-01
   135  1.3400000000000E+00  2.8749271804000E-01  2.8743043673000E-01
   136  1.3500000000000E+00  2.7342446170000E-01  2.4801365255000E-01
   137  1.3600000000000E+00  2.5971046485000E-01  2.0957195909000E-01
   138  1.3700000000000E+00  2.4635875831000E-01  1.7220488837000E-01
   139  1.3800000000000E+00  2.3337700129000E-01  1.3601136240000E-01
   140  1.3900000000000E+00  2.2077122219000E-01  1.0107426171000E-01
   141  1.4000000000000E+00  2.0854703969000E-01  6.7474961716000E-02
   142  1.4100000000000E+00  1.9670906462000E-01  3.5286118309000E-02
   143  1.4200000000000E+00  1.8526069535000E-01  4.5684341724000E-03
   144  1.4300000000000E+00  1.7420503431000E-01 -2.4617239989000E-02
   145  1.4400000000000E+00  1.6354353621000E-01 -5.2228154605000E-02
   146  1.4500000000000E+00  1.5327733148000E-01 -7.8222112531000E-02
   147  1.4600000000000E+00  1.4340642319000E-01 -1.0256833577000E-01
   148  1.4700000000000E+00  1.3392990072000E-01 -1.2524514362000E-01
   149  1.4800000000000E+00  1.2484633317000E-01 -1.4623389242000E-01
   150  1.4900000000000E+00  1.1615295744000E-01 -1.6553173579000E-01
   151  1.5000000000000E+00  1.0784680105000E-01 -1.8313435698000E-01
   152  1.5100000000000E+00  9.9923578800000E-02 -1.9905366020000E-01
   153  1.5200000000000E+00  9.2378683934000E-02 -2.1330208664000E-01
   154  1.5300000000000E+00  8.5206558426000E-02 -2.2590304248000E-01
   155  1.5400000000000E+00  7.8401089183000E-02 -2.3688493718000E-01
   156  1.5500000000000E+00  7.1955520324000E-02 -2.4628210529000E-01
   157  1.5600000000000E+00  6.5862447138000E-02 -2.5413677080000E-01
   158  1.5700000000000E+00  6.0113998308000E-02 -2.6049356341000E-01
   159  1.5800000000000E+00  5.4701706163000E-02 -2.6540608194000E-01
   160  1.5900000000000E+00  4.9616681948000E-02 -2.6892844244000E-01
   161  1.6000000000000E+00  4.4849620862000E-02 -2.7112300312000E-01
   162  1.6100000000000E+00  4.0390747672000E-02 -2.7205251364000E-01
   163  1.6200000000000E+00  3.6230115004000E-02 -2.7178546899000E-01
   164  1.6300000000000E+00  3.2357248266000E-02 -2.7039171138000E-01
   165  1.6400000000000E+00  2.8761713808000E-02 -2.6794391247000E-01
   166  1.6500000000000E+00  2.5432533247000E-02 -2.6451691747000E-01
   167  1.6600000000000E+00  2.2358953342000E-02 -2.6018585814000E-01
   168  1.6700000000000E+00  1.9529672447000E-02 -2.5502850331000E-01
   169  1.6800000000000E+00  1.6933794866000E-02 -2.4912061567000E-01
   170  1.6900000000000E+00  1.4559855626000E-02 -2.4254101876000E-01
   171  1.7000000000000E+00  1.2397002144000E-02 -2.3536419037000E-01
   172  1.7100000000000E+00  1.0433742053000E-02 -2.2766840385000E-01
   173  1.7200000000000E+00  8.6594562427000E-03 -2.1952489790000E-01
   174  1.7300000000000E+00  7.0627356295000E-03 -2.1101007884000E-01
   175  1.7400000000000E+00  5.6333843525000E-03 -2.0219002477000E-01
   176  1.7500000000000E+00  4.3601633427000E-03 -1.9313823777000E-01
   177  1.7600000000000E+00  3.2334816823000E-03 -1.8391384255000E-01
   178  1.7700000000000E+00  2.2423374653000E-03 -1.7458663393000E-01
   179  1.7800000000000E+00  1.3778384000000E-03 -1.6520782985000E-01
   180  1.7900000000000E+00  6.2948501551000E-04 -1.5584110106000E-01
   181  1.8000000000000E+00 -1.1056408591000E-05 -1.4653090441000E-01
   182  1.8100000000000E+00 -5.5346859762000E-04 -1.3733200441000E-01
   183  1.8200000000000E+00 -1.0056531209000E-03 -1.2828324655000E-01
   184  1.8300000000000E+00 -1.3762710844000E-03 -1.1942876053000E-01
   185  1.8400000000000E+00 -1.6728467676000E-03 -1.1080235061000E-01
   186  1.8500000000000E+00 -1.9028753424000E-03 -1.0243650637000E-01
   187  1.8600000000000E+00 -2.0735591247000E-03 -9.4360523017000E-02
   188  1.8700000000000E+00 -2.1911334127000E-03 -8.6594937312000E-02
   189  1.8800000000000E+00 -2.2625125212000E-03 -7.9164798212000E-02
   190  1.8900000000000E+00 -2.2926694441000E-03 -7.2079414326000E-02
   191  1.9000000000000E+00 -2.2881610885000E-03 -6.5358957113000E-02
   192  1.9100000000000E+00 -2.2530443606000E-03 -5.9004912153000E-02
   193  1.9200000000000E+00 -2.1927711632000E-03 -5.3027522527000E-02
   194  1.9300000000000E+00 -2.1112666403000E-03 -4.7426467622000E-02
   195  1.9400000000000E+00 -2.0126388406000E-03 -4.2201550017000E-02
   196  1.9500000000000E+00 -1.9007420097000E-03 -3.7350789981000E-02
   197  1.9600000000000E+00 -1.7784293832000E-03 -3.2865983230000E-02
   198  1.9700000000000E+00 -1.6494540945000E-03 -2.8742714119000E-02
   199  1.9800000000000E+00 -1.5157856851000E-03 -2.4968660742000E-02
   200  1.9900000000000E+00 -1.3804644678000E-03 -2.1534603602000E-02
   201  2.0000000000000E+00 -1.2453501775000E-03 -1.8428051161000E-02
   202  2.0100000000000E+00 -1.1124841207000E-03 -1.5636527927000E-02
   203  2.0200000000000E+00 -9.8380260177000E-04 -1.3146805582000E-02
   204  2.0300000000000E+00 -8.6030517778000E-04 -1.0942812724000E-02
   205  2.0400000000000E+00 -7.4390428117000E-04 -9.0104172327000E-03
   206  2.0500000000000E+00 -6.3493890738000E-04 -7.3307866841000E-03
   207  2.0600000000000E+00 -5.3443897253000E-04 -5.8858484114000E-03
   208  2.0700000000000E+00 -4.4292557659000E-04 -4.6570251747000E-03
   209  2.0800000000000E+00 -3.6045732726000E-04 -3.6250991220000E-03
   210  2.0900000000000E+00 -2.8762418155000E-04 -2.7695522241000E-03
   211  2.1000000000000E+00 -2.2394430847000E-04 -2.0729742337000E-03
   212  2.1100000000000E+00 -1.6945552079000E-04 -1.5149635044000E-03
   213  2.1200000000000E+00 -1.2379834915000E-04 -1.0778628488000E-03
   214  2.1300000000000E+00 -8.6352715888000E-05 -7.4561081082000E-04
   215  2.1400000000000E+00 -5.6829225411000E-05 -4.9786825393000E-04
   216  2.1500000000000E+00 -3.4254541301000E-05 -3.2334282421000E-04
   217  2.1600000000000E+00 -1.7954607956000E-05 -2.0542629165000E-04
   218  2.1700000000000E+00 -7.0607358556000E-06 -1.3083578693000E-04
   219  2.1800000000000E+00 -4.6683840098000E-07 -9.0480159805000E-05
   220  2.1900000000000E+00  3.0946264470000E-06 -7.1354495846000E-05
   221  2.2000000000000E+00  4.2069342006000E-06 -6.4646378343000E-05
   222  2.2100000000000E+00  3.6670869035000E-06 -5.5622074008000E-05
   223  2.2200000000000E+00  2.3016979932000E-06 -3.0822952816000E-05
   224  2.2300000000000E+00  5.9806335907000E-07 -7.3801738335000E-06
   225  2.2400000000000E+00 -2.1330479480000E-07  3.3888520832000E-06
   226  2.2500000000000E+00 -2.2638488232000E-07  3.5966602662000E-06
   227  2.2600000000000E+00 -1.4424902280000E-08  2.2917375199000E-07
   228  2.2700000000000E+00  0.0000000000000E+00  0.0000000000000E+00
   229  2.2800000000000E+00  0.0000000000000E+00  0.0000000000000E+00
   230  2.2900000000000E+00  0.0000000000000E+00  0.0000000000000E+00
   231  2.3000000000000E+00  0.0000000000000E+00  0.0000000000000E+00
   232  2.3100000000000E+00  0.0000000000000E+00  0.0000000000000E+00
   233  2.3200000000000E+00  0.0000000000000E+00  0.0000000000000E+00
   234  2.3300000000000E+00  0.0000000000000E+00  0.0000000000000E+00
   235  2.3400000000000E+00  0.0000000000000E+00  0.0000000000000E+00
   236  2.3500000000000E+00  0.0000000000000E+00  0.0000000000000E+00
   237  2.3600000000000E+00  0.0000000000000E+00  0.0000000000000E+00
   238  2.3700000000000E+00  0.0000000000000E+00  0.0000000000000E+00
   239  2.3800000000000E+00  0.0000000000000E+00  0.0000000000000E+00
   240  2.3900000000000E+00  0.0000000000000E+00  0.0000000000000E+00
   241  2.4000000000000E+00  0.0000000000000E+00  0.0000000000000E+00
   242  2.4100000000000E+00  0.0000000000000E+00  0.0000000000000E+00
   243  2.4200000000000E+00  0.0000000000000E+00  0.0000000000000E+00
   244  2.4300000000000E+00  0.0000000000000E+00  0.0000000000000E+00
   245  2.4400000000000E+00  0.0000000000000E+00  0.0000000000000E+00
   246  2.4500000000000E+00  0.0000000000000E+00  0.0000000000000E+00
   247  2.4600000000000E+00  0.0000000000000E+00  0.0000000000000E+00
   248  2.4700000000000E+00  0.0000000000000E+00  0.0000000000000E+00
   249  2.4800000000000E+00  0.0000000000000E+00  0.0000000000000E+00
   250  2.4900000000000E+00  0.0000000000000E+00  0.0000000000000E+00
   251  2.5000000000000E+00  0.0000000000000E+00  0.0000000000000E+00
   252  2.5100000000000E+00  0.0000000000000E+00  0.0000000000000E+00
   253  2.5200000000000E+00  0.0000000000000E+00  0.0000000000000E+00
   254  2.5300000000000E+00  0.0000000000000E+00  0.0000000000000E+00
   255  2.5400000000000E+00  0.0000000000000E+00  0.0000000000000E+00
   256  2.5500000000000E+00  0.0000000000000E+00  0.0000000000000E+00
   257  2.5600000000000E+00  0.0000000000000E+00  0.0000000000000E+00
   258  2.5700000000000E+00  0.0000000000000E+00  0.0000000000000E+00
   259  2.5800000000000E+00  0.0000000000000E+00  0.0000000000000E+00
   260  2.5900000000000E+00  0.0000000000000E+00  0.0000000000000E+00
   261  2.6000000000000E+00  0.0000000000000E+00  0.0000000000000E+00
   262  2.6100000000000E+00  0.0000000000000E+00  0.0000000000000E+00
   263  2.6200000000000E+00  0.0000000000000E+00  0.0000000000000E+00
   264  2.6300000000000E+00  0.0000000000000E+00  0.0000000000000E+00
   265  2.6400000000000E+00  0.0000000000000E+00  0.0000000000000E+00
   266  2.6500000000000E+00  0.0000000000000E+00  0.0000000000000E+00
   267  2.6600000000000E+00  0.0000000000000E+00  0.0000000000000E+00
   268  2.6700000000000E+00  0.0000000000000E+00  0.0000000000000E+00
   269  2.6800000000000E+00  0.0000000000000E+00  0.0000000000000E+00
   270  2.6900000000000E+00  0.0000000000000E+00  0.0000000000000E+00
   271  2.7000000000000E+00  0.0000000000000E+00  0.0000000000000E+00
   272  2.7100000000000E+00  0.0000000000000E+00  0.0000000000000E+00
   273  2.7200000000000E+00  0.0000000000000E+00  0.0000000000000E+00
   274  2.7300000000000E+00  0.0000000000000E+00  0.0000000000000E+00
   275  2.7400000000000E+00  0.0000000000000E+00  0.0000000000000E+00
   276  2.7500000000000E+00  0.0000000000000E+00  0.0000000000000E+00
   277  2.7600000000000E+00  0.0000000000000E+00  0.0000000000000E+00
   278  2.7700000000000E+00  0.0000000000000E+00  0.0000000000000E+00
   279  2.7800000000000E+00  0.0000000000000E+00  0.0000000000000E+00
   280  2.7900000000000E+00  0.0000000000000E+00  0.0000000000000E+00
   281  2.8000000000000E+00  0.0000000000000E+00  0.0000000000000E+00
   282  2.8100000000000E+00  0.0000000000000E+00  0.0000000000000E+00
   283  2.8200000000000E+00  0.0000000000000E+00  0.0000000000000E+00
   284  2.8300000000000E+00  0.0000000000000E+00  0.0000000000000E+00
   285  2.8400000000000E+00  0.0000000000000E+00  0.0000000000000E+00
   286  2.8500000000000E+00  0.0000000000000E+00  0.0000000000000E+00
   287  2.8600000000000E+00  0.0000000000000E+00  0.0000000000000E+00
   288  2.8700000000000E+00  0.0000000000000E+00  0.0000000000000E+00
   289  2.8800000000000E+00  0.0000000000000E+00  0.0000000000000E+00
   290  2.8900000000000E+00  0.0000000000000E+00  0.0000000000000E+00
   291  2.9000000000000E+00  0.0000000000000E+00  0.0000000000000E+00
   292  2.9100000000000E+00  0.0000000000000E+00  0.0000000000000E+00
   293  2.9200000000000E+00  0.0000000000000E+00  0.0000000000000E+00
   294  2.9300000000000E+00  0.0000000000000E+00  0.0000000000000E+00
   295  2.9400000000000E+00  0.0000000000000E+00  0.0000000000000E+00
   296  2.9500000000000E+00  0.0000000000000E+00  0.0000000000000E+00
   297  2.9600000000000E+00  0.0000000000000E+00  0.0000000000000E+00
   298  2.9700000000000E+00  0.0000000000000E+00  0.0000000000000E+00
   299  2.9800000000000E+00  0.0000000000000E+00  0.0000000000000E+00
   300  2.9900000000000E+00  0.0000000000000E+00  0.0000000000000E+00
   301  3.0000000000000E+00  0.0000000000000E+00  0.0000000000000E+00
   302  3.0100000000000E+00  0.0000000000000E+00  0.0000000000000E+00
   303  3.0200000000000E+00  0.0000000000000E+00  0.0000000000000E+00
   304  3.0300000000000E+00  0.0000000000000E+00  0.0000000000000E+00
   305  3.0400000000000E+00  0.0000000000000E+00  0.0000000000000E+00
   306  3.0500000000000E+00  0.0000000000000E+00  0.0000000000000E+00
   307  3.0600000000000E+00  0.0000000000000E+00  0.0000000000000E+00
   308  3.0700000000000E+00  0.0000000000000E+00  0.0000000000000E+00
   309  3.0800000000000E+00  0.0000000000000E+00  0.0000000000000E+00
   310  3.0900000000000E+00  0.0000000000000E+00  0.0000000000000E+00
   311  3.1000000000000E+00  0.0000000000000E+00  0.0000000000000E+00
   312  3.1100000000000E+00  0.0000000000000E+00  0.0000000000000E+00
   313  3.1200000000000E+00  0.0000000000000E+00  0.0000000000000E+00
   314  3.1300000000000E+00  0.0000000000000E+00  0.0000000000000E+00
   315  3.1400000000000E+00  0.0000000000000E+00  0.0000000000000E+00
   316  3.1500000000000E+00  0.0000000000000E+00  0.0000000000000E+00
   317  3.1600000000000E+00  0.0000000000000E+00  0.0000000000000E+00
   318  3.1700000000000E+00  0.0000000000000E+00  0.0000000000000E+00
   319  3.1800000000000E+00  0.0000000000000E+00  0.0000000000000E+00
   320  3.1900000000000E+00  0.0000000000000E+00  0.0000000000000E+00
   321  3.2000000000000E+00  0.0000000000000E+00  0.0000000000000E+00
   322  3.2100000000000E+00  0.0000000000000E+00  0.0000000000000E+00
   323  3.2200000000000E+00  0.0000000000000E+00  0.0000000000000E+00
   324  3.2300000000000E+00  0.0000000000000E+00  0.0000000000000E+00
   325  3.2400000000000E+00  0.0000000000000E+00  0.0000000000000E+00
   326  3.2500000000000E+00  0.0000000000000E+00  0.0000000000000E+00
   327  3.2600000000000E+00  0.0000000000000E+00  0.0000000000000E+00
   328  3.2700000000000E+00  0.0000000000000E+00  0.0000000000000E+00
   329  3.2800000000000E+00  0.0000000000000E+00  0.0000000000000E+00
   330  3.2900000000000E+00  0.0000000000000E+00  0.0000000000000E+00
   331  3.3000000000000E+00  0.0000000000000E+00  0.0000000000000E+00
   332  3.3100000000000E+00  0.0000000000000E+00  0.0000000000000E+00
   333  3.3200000000000E+00  0.0000000000000E+00  0.0000000000000E+00
   334  3.3300000000000E+00  0.0000000000000E+00  0.0000000000000E+00
   335  3.3400000000000E+00  0.0000000000000E+00  0.0000000000000E+00
   336  3.3500000000000E+00  0.0000000000000E+00  0.0000000000000E+00
   337  3.3600000000000E+00  0.0000000000000E+00  0.0000000000000E+00
   338  3.3700000000000E+00  0.0000000000000E+00  0.0000000000000E+00
   339  3.3800000000000E+00  0.0000000000000E+00  0.0000000000000E+00
   340  3.3900000000000E+00  0.0000000000000E+00  0.0000000000000E+00
   341  3.4000000000000E+00  0.0000000000000E+00  0.0000000000000E+00
   342  3.4100000000000E+00  0.0000000000000E+00  0.0000000000000E+00
   343  3.4200000000000E+00  0.0000000000000E+00  0.0000000000000E+00
   344  3.4300000000000E+00  0.0000000000000E+00  0.0000000000000E+00
   345  3.4400000000000E+00  0.0000000000000E+00  0.0000000000000E+00
   346  3.4500000000000E+00  0.0000000000000E+00  0.0000000000000E+00
   347  3.4600000000000E+00  0.0000000000000E+00  0.0000000000000E+00
   348  3.4700000000000E+00  0.0000000000000E+00  0.0000000000000E+00
   349  3.4800000000000E+00  0.0000000000000E+00  0.0000000000000E+00
   350  3.4900000000000E+00  0.0000000000000E+00  0.0000000000000E+00
   351  3.5000000000000E+00  0.0000000000000E+00  0.0000000000000E+00
   352  3.5100000000000E+00  0.0000000000000E+00  0.0000000000000E+00
   353  3.5200000000000E+00  0.0000000000000E+00  0.0000000000000E+00
   354  3.5300000000000E+00  0.0000000000000E+00  0.0000000000000E+00
   355  3.5400000000000E+00  0.0000000000000E+00  0.0000000000000E+00
   356  3.5500000000000E+00  0.0000000000000E+00  0.0000000000000E+00
   357  3.5600000000000E+00  0.0000000000000E+00  0.0000000000000E+00
   358  3.5700000000000E+00  0.0000000000000E+00  0.0000000000000E+00
   359  3.5800000000000E+00  0.0000000000000E+00  0.0000000000000E+00
   360  3.5900000000000E+00  0.0000000000000E+00  0.0000000000000E+00
   361  3.6000000000000E+00  0.0000000000000E+00  0.0000000000000E+00
   362  3.6100000000000E+00  0.0000000000000E+00  0.0000000000000E+00
   363  3.6200000000000E+00  0.0000000000000E+00  0.0000000000000E+00
   364  3.6300000000000E+00  0.0000000000000E+00  0.0000000000000E+00
   365  3.6400000000000E+00  0.0000000000000E+00  0.0000000000000E+00
   366  3.6500000000000E+00  0.0000000000000E+00  0.0000000000000E+00
   367  3.6600000000000E+00  0.0000000000000E+00  0.0000000000000E+00
   368  3.6700000000000E+00  0.0000000000000E+00  0.0000000000000E+00
   369  3.6800000000000E+00  0.0000000000000E+00  0.0000000000000E+00
   370  3.6900000000000E+00  0.0000000000000E+00  0.0000000000000E+00
   371  3.7000000000000E+00  0.0000000000000E+00  0.0000000000000E+00
   372  3.7100000000000E+00  0.0000000000000E+00  0.0000000000000E+00
   373  3.7200000000000E+00  0.0000000000000E+00  0.0000000000000E+00
   374  3.7300000000000E+00  0.0000000000000E+00  0.0000000000000E+00
   375  3.7400000000000E+00  0.0000000000000E+00  0.0000000000000E+00
   376  3.7500000000000E+00  0.0000000000000E+00  0.0000000000000E+00
   377  3.7600000000000E+00  0.0000000000000E+00  0.0000000000000E+00
   378  3.7700000000000E+00  0.0000000000000E+00  0.0000000000000E+00
   379  3.7800000000000E+00  0.0000000000000E+00  0.0000000000000E+00
   380  3.7900000000000E+00  0.0000000000000E+00  0.0000000000000E+00
   381  3.8000000000000E+00  0.0000000000000E+00  0.0000000000000E+00
   382  3.8100000000000E+00  0.0000000000000E+00  0.0000000000000E+00
   383  3.8200000000000E+00  0.0000000000000E+00  0.0000000000000E+00
   384  3.8300000000000E+00  0.0000000000000E+00  0.0000000000000E+00
   385  3.8400000000000E+00  0.0000000000000E+00  0.0000000000000E+00
   386  3.8500000000000E+00  0.0000000000000E+00  0.0000000000000E+00
   387  3.8600000000000E+00  0.0000000000000E+00  0.0000000000000E+00
   388  3.8700000000000E+00  0.0000000000000E+00  0.0000000000000E+00
   389  3.8800000000000E+00  0.0000000000000E+00  0.0000000000000E+00
   390  3.8900000000000E+00  0.0000000000000E+00  0.0000000000000E+00
   391  3.9000000000000E+00  0.0000000000000E+00  0.0000000000000E+00
   392  3.9100000000000E+00  0.0000000000000E+00  0.0000000000000E+00
   393  3.9200000000000E+00  0.0000000000000E+00  0.0000000000000E+00
   394  3.9300000000000E+00  0.0000000000000E+00  0.0000000000000E+00
   395  3.9400000000000E+00  0.0000000000000E+00  0.0000000000000E+00
   396  3.9500000000000E+00  0.0000000000000E+00  0.0000000000000E+00
   397  3.9600000000000E+00  0.0000000000000E+00  0.0000000000000E+00
   398  3.9700000000000E+00  0.0000000000000E+00  0.0000000000000E+00
   399  3.9800000000000E+00  0.0000000000000E+00  0.0000000000000E+00
   400  3.9900000000000E+00  0.0000000000000E+00  0.0000000000000E+00
   401  4.0000000000000E+00  0.0000000000000E+00  0.0000000000000E+00
   402  4.0100000000000E+00  0.0000000000000E+00  0.0000000000000E+00
   403  4.0200000000000E+00  0.0000000000000E+00  0.0000000000000E+00
   404  4.0300000000000E+00  0.0000000000000E+00  0.0000000000000E+00
   405  4.0400000000000E+00  0.0000000000000E+00  0.0000000000000E+00
   406  4.0500000000000E+00  0.0000000000000E+00  0.0000000000000E+00
   407  4.0600000000000E+00  0.0000000000000E+00  0.0000000000000E+00
   408  4.0700000000000E+00  0.0000000000000E+00  0.0000000000000E+00
   409  4.0800000000000E+00  0.0000000000000E+00  0.0000000000000E+00
   410  4.0900000000000E+00  0.0000000000000E+00  0.0000000000000E+00
   411  4.1000000000000E+00  0.0000000000000E+00  0.0000000000000E+00
   412  4.1100000000000E+00  0.0000000000000E+00  0.0000000000000E+00
   413  4.1200000000000E+00  0.0000000000000E+00  0.0000000000000E+00
   414  4.1300000000000E+00  0.0000000000000E+00  0.0000000000000E+00
   415  4.1400000000000E+00  0.0000000000000E+00  0.0000000000000E+00
   416  4.1500000000000E+00  0.0000000000000E+00  0.0000000000000E+00
   417  4.1600000000000E+00  0.0000000000000E+00  0.0000000000000E+00
   418  4.1700000000000E+00  0.0000000000000E+00  0.0000000000000E+00
   419  4.1800000000000E+00  0.0000000000000E+00  0.0000000000000E+00
   420  4.1900000000000E+00  0.0000000000000E+00  0.0000000000000E+00
   421  4.2000000000000E+00  0.0000000000000E+00  0.0000000000000E+00
   422  4.2100000000000E+00  0.0000000000000E+00  0.0000000000000E+00
   423  4.2200000000000E+00  0.0000000000000E+00  0.0000000000000E+00