Co   ONCVPSP-2.1.1   r_core=    2.15848 2.05791 2.18438
    27.0000   17.0000   150105   zatom,zion,pspd
    8   11   2   4   600   0   pspcod,pspxc,lmax,lloc,mmax,r2well
    5.99000000   0.00000000   0.00000000   rchrg fchrg qchrg
    2   2   2   0   0   nproj
    1   1   extension_switch
       0                        -3.0248892189500E+00 -1.1504577618000E-01
     1  0.0000000000000E+00  0.0000000000000E+00  0.0000000000000E+00
     2  1.0000000000000E-02 -3.9392696921000E-02  4.7964321623000E-02
     3  2.0000000000000E-02 -7.8745485250000E-02  9.5761487767000E-02
     4  3.0000000000000E-02 -1.1801852043000E-01  1.4322508307000E-01
     5  4.0000000000000E-02 -1.5717208583000E-01  1.9019016843000E-01
     6  5.0000000000000E-02 -1.9616665629000E-01  2.3649400928000E-01
     7  6.0000000000000E-02 -2.3496296118000E-01  2.8197679206000E-01
     8  7.0000000000000E-02 -2.7352204688000E-01  3.2648232507000E-01
     9  8.0000000000000E-02 -3.1180533838000E-01  3.6985871999000E-01
    10  9.0000000000000E-02 -3.4977469998000E-01  4.1195905046000E-01
    11  1.0000000000000E-01 -3.8739249492000E-01  4.5264198421000E-01
    12  1.1000000000000E-01 -4.2462164373000E-01  4.9177238535000E-01
    13  1.2000000000000E-01 -4.6142568122000E-01  5.2922188381000E-01
    14  1.3000000000000E-01 -4.9776881197000E-01  5.6486940877000E-01
    15  1.4000000000000E-01 -5.3361596415000E-01  5.9860168353000E-01
    16  1.5000000000000E-01 -5.6893284165000E-01  6.3031367902000E-01
    17  1.6000000000000E-01 -6.0368597426000E-01  6.5990902397000E-01
    18  1.7000000000000E-01 -6.3784276595000E-01  6.8730036925000E-01
    19  1.8000000000000E-01 -6.7137154099000E-01  7.1240970510000E-01
    20  1.9000000000000E-01 -7.0424158797000E-01  7.3516862950000E-01
    21  2.0000000000000E-01 -7.3642320155000E-01  7.5551856609000E-01
    22  2.1000000000000E-01 -7.6788772184000E-01  7.7341093148000E-01
    23  2.2000000000000E-01 -7.9860757147000E-01  7.8880725047000E-01
    24  2.3000000000000E-01 -8.2855629014000E-01  8.0167921950000E-01
    25  2.4000000000000E-01 -8.5770856669000E-01  8.1200871774000E-01
    26  2.5000000000000E-01 -8.8604026862000E-01  8.1978776639000E-01
    27  2.6000000000000E-01 -9.1352846912000E-01  8.2501843677000E-01
    28  2.7000000000000E-01 -9.4015147141000E-01  8.2771270753000E-01
    29  2.8000000000000E-01 -9.6588883045000E-01  8.2789227271000E-01
    30  2.9000000000000E-01 -9.9072137219000E-01  8.2558830176000E-01
    31  3.0000000000000E-01 -1.0146312101000E+00  8.2084115301000E-01
    32  3.1000000000000E-01 -1.0376017592000E+00  8.1370004262000E-01
    33  3.2000000000000E-01 -1.0596177473000E+00  8.0422267133000E-01
    34  3.3000000000000E-01 -1.0806652238000E+00  7.9247481394000E-01
    35  3.4000000000000E-01 -1.1007315665000E+00  7.7852986189000E-01
    36  3.5000000000000E-01 -1.1198054848000E+00  7.6246835002000E-01
    37  3.6000000000000E-01 -1.1378770217000E+00  7.4437742567000E-01
    38  3.7000000000000E-01 -1.1549375525000E+00  7.2435031949000E-01
    39  3.8000000000000E-01 -1.1709797819000E+00  7.0248576610000E-01
    40  3.9000000000000E-01 -1.1859977384000E+00  6.7888741294000E-01
    41  4.0000000000000E-01 -1.1999867666000E+00  6.5366321710000E-01
    42  4.1000000000000E-01 -1.2129435178000E+00  6.2692481971000E-01
    43  4.2000000000000E-01 -1.2248659380000E+00  5.9878691200000E-01
    44  4.3000000000000E-01 -1.2357532543000E+00  5.6936659469000E-01
    45  4.4000000000000E-01 -1.2456059597000E+00  5.3878273430000E-01
    46  4.5000000000000E-01 -1.2544257957000E+00  5.0715532002000E-01
    47  4.6000000000000E-01 -1.2622157332000E+00  4.7460482487000E-01
    48  4.7000000000000E-01 -1.2689799525000E+00  4.4125157526000E-01
    49  4.8000000000000E-01 -1.2747238210000E+00  4.0721513626000E-01
    50  4.9000000000000E-01 -1.2794538705000E+00  3.7261372564000E-01
    51  5.0000000000000E-01 -1.2831777713000E+00  3.3756356354000E-01
    52  5.1000000000000E-01 -1.2859043075000E+00  3.0217837143000E-01
    53  5.2000000000000E-01 -1.2876433512000E+00  2.6656886791000E-01
    54  5.3000000000000E-01 -1.2884058306000E+00  2.3084212644000E-01
    55  5.4000000000000E-01 -1.2882037055000E+00  1.9510122698000E-01
    56  5.5000000000000E-01 -1.2870499359000E+00  1.5944477416000E-01
    57  5.6000000000000E-01 -1.2849584492000E+00  1.2396640979000E-01
    58  5.7000000000000E-01 -1.2819441149000E+00  8.8754600792000E-02
    59  5.8000000000000E-01 -1.2780227042000E+00  5.3892097134000E-02
    60  5.9000000000000E-01 -1.2732108669000E+00  1.9455851930000E-02
    61  6.0000000000000E-01 -1.2675260911000E+00 -1.4483396077000E-02
    62  6.1000000000000E-01 -1.2609866724000E+00 -4.7861261804000E-02
    63  6.2000000000000E-01 -1.2536116865000E+00 -8.0619788610000E-02
    64  6.3000000000000E-01 -1.2454209398000E+00 -1.1270780245000E-01
    65  6.4000000000000E-01 -1.2364349517000E+00 -1.4408073178000E-01
    66  6.5000000000000E-01 -1.2266749153000E+00 -1.7470073279000E-01
    67  6.6000000000000E-01 -1.2161626520000E+00 -2.0453677914000E-01
    68  6.7000000000000E-01 -1.2049205906000E+00 -2.3356444480000E-01
    69  6.8000000000000E-01 -1.1929717330000E+00 -2.6176582642000E-01
    70  6.9000000000000E-01 -1.1803396057000E+00 -2.8912950528000E-01
    71  7.0000000000000E-01 -1.1670482333000E+00 -3.1565028643000E-01
    72  7.1000000000000E-01 -1.1531221053000E+00 -3.4132896763000E-01
    73  7.2000000000000E-01 -1.1385861394000E+00 -3.6617209875000E-01
    74  7.3000000000000E-01 -1.1234656516000E+00 -3.9019168178000E-01
    75  7.4000000000000E-01 -1.1077863067000E+00 -4.1340488026000E-01
    76  7.5000000000000E-01 -1.0915740943000E+00 -4.3583362806000E-01
    77  7.6000000000000E-01 -1.0748552939000E+00 -4.5750425477000E-01
    78  7.7000000000000E-01 -1.0576564385000E+00 -4.7844708590000E-01
    79  7.8000000000000E-01 -1.0400042800000E+00 -4.9869601775000E-01
    80  7.9000000000000E-01 -1.0219257540000E+00 -5.1828807443000E-01
    81  8.0000000000000E-01 -1.0034479458000E+00 -5.3726295037000E-01
    82  8.1000000000000E-01 -9.8459805532000E-01 -5.5566254165000E-01
    83  8.2000000000000E-01 -9.6540336277000E-01 -5.7353046953000E-01
    84  8.3000000000000E-01 -9.4589119430000E-01 -5.9091159970000E-01
    85  8.4000000000000E-01 -9.2608888754000E-01 -6.0785156045000E-01
    86  8.5000000000000E-01 -9.0602375735000E-01 -6.2439626329000E-01
    87  8.6000000000000E-01 -8.8572306161000E-01 -6.4059142923000E-01
    88  8.7000000000000E-01 -8.6521396712000E-01 -6.5648212405000E-01
    89  8.8000000000000E-01 -8.4452351558000E-01 -6.7211230568000E-01
    90  8.9000000000000E-01 -8.2367858963000E-01 -6.8752438678000E-01
    91  9.0000000000000E-01 -8.0270587913000E-01 -7.0275881564000E-01
    92  9.1000000000000E-01 -7.8163184747000E-01 -7.1785367816000E-01
    93  9.2000000000000E-01 -7.6048269818000E-01 -7.3284432372000E-01
    94  9.3000000000000E-01 -7.3928434164000E-01 -7.4776301764000E-01
    95  9.4000000000000E-01 -7.1806236216000E-01 -7.6263862243000E-01
    96  9.5000000000000E-01 -6.9684198531000E-01 -7.7749631036000E-01
    97  9.6000000000000E-01 -6.7564804565000E-01 -7.9235730890000E-01
    98  9.7000000000000E-01 -6.5450496521000E-01 -8.0723876302000E-01
    99  9.8000000000000E-01 -6.3343670812000E-01 -8.2215343052000E-01
   100  9.9000000000000E-01 -6.1246672930000E-01 -8.3710938191000E-01
   101  1.0000000000000E+00 -5.9161798024000E-01 -8.5211018265000E-01
   102  1.0100000000000E+00 -5.7091286531000E-01 -8.6715471060000E-01
   103  1.0200000000000E+00 -5.5037321276000E-01 -8.8223712478000E-01
   104  1.0300000000000E+00 -5.3002025228000E-01 -8.9734690745000E-01
   105  1.0400000000000E+00 -5.0987461240000E-01 -9.1246903074000E-01
   106  1.0500000000000E+00 -4.8995617951000E-01 -9.2758336355000E-01
   107  1.0600000000000E+00 -4.7028418992000E-01 -9.4266554625000E-01
   108  1.0700000000000E+00 -4.5087716867000E-01 -9.5768690377000E-01
   109  1.0800000000000E+00 -4.3175292150000E-01 -9.7261468926000E-01
   110  1.0900000000000E+00 -4.1292851950000E-01 -9.8741226397000E-01
   111  1.1000000000000E+00 -3.9442015071000E-01 -1.0020389514000E+00
   112  1.1100000000000E+00 -3.7624325076000E-01 -1.0164509292000E+00
   113  1.1200000000000E+00 -3.5841243800000E-01 -1.0306013184000E+00
   114  1.1300000000000E+00 -3.4094158032000E-01 -1.0444405484000E+00
   115  1.1400000000000E+00 -3.2384350445000E-01 -1.0579163740000E+00
   116  1.1500000000000E+00 -3.0713024742000E-01 -1.0709747578000E+00
   117  1.1600000000000E+00 -2.9081299206000E-01 -1.0835600326000E+00
   118  1.1700000000000E+00 -2.7490206312000E-01 -1.0956151382000E+00
   119  1.1800000000000E+00 -2.5940672181000E-01 -1.1070824541000E+00
   120  1.1900000000000E+00 -2.4433540144000E-01 -1.1179040042000E+00
   121  1.2000000000000E+00 -2.2969570888000E-01 -1.1280214910000E+00
   122  1.2100000000000E+00 -2.1549417716000E-01 -1.1373775213000E+00
   123  1.2200000000000E+00 -2.0173642814000E-01 -1.1459157999000E+00
   124  1.2300000000000E+00 -1.8842726207000E-01 -1.1535808504000E+00
   125  1.2400000000000E+00 -1.7557049660000E-01 -1.1603191220000E+00
   126  1.2500000000000E+00 -1.6316894563000E-01 -1.1660800329000E+00
   127  1.2600000000000E+00 -1.5122464131000E-01 -1.1708146721000E+00
   128  1.2700000000000E+00 -1.3973868206000E-01 -1.1744770884000E+00
   129  1.2800000000000E+00 -1.2871116003000E-01 -1.1770260039000E+00
   130  1.2900000000000E+00 -1.1814143478000E-01 -1.1784223140000E+00
   131  1.3000000000000E+00 -1.0802794404000E-01 -1.1786312833000E+00
   132  1.3100000000000E+00 -9.8368203261000E-02 -1.1776238500000E+00
   133  1.3200000000000E+00 -8.9159043430000E-02 -1.1753732710000E+00
   134  1.3300000000000E+00 -8.0396375201000E-02 -1.1718592528000E+00
   135  1.3400000000000E+00 -7.2075336178000E-02 -1.1670669563000E+00
   136  1.3500000000000E+00 -6.4190408862000E-02 -1.1609838274000E+00
   137  1.3600000000000E+00 -5.6735201666000E-02 -1.1536064928000E+00
   138  1.3700000000000E+00 -4.9702721203000E-02 -1.1449347272000E+00
   139  1.3800000000000E+00 -4.3085283004000E-02 -1.1349731677000E+00
   140  1.3900000000000E+00 -3.6874547063000E-02 -1.1237347773000E+00
   141  1.4000000000000E+00 -3.1061598538000E-02 -1.1112343762000E+00
   142  1.4100000000000E+00 -2.5636935801000E-02 -1.0974952941000E+00
   143  1.4200000000000E+00 -2.0590562069000E-02 -1.0825449323000E+00
   144  1.4300000000000E+00 -1.5911921460000E-02 -1.0664149189000E+00
   145  1.4400000000000E+00 -1.1590130545000E-02 -1.0491446743000E+00
   146  1.4500000000000E+00 -7.6137271906000E-03 -1.0307750274000E+00
   147  1.4600000000000E+00 -3.9710590259000E-03 -1.0113547574000E+00
   148  1.4700000000000E+00 -6.5003288669000E-04 -9.9093482293000E-01
   149  1.4800000000000E+00  2.3617293501000E-03 -9.6957117747000E-01
   150  1.4900000000000E+00  5.0766971304000E-03 -9.4732376777000E-01
   151  1.5000000000000E+00  7.5078641429000E-03 -9.2425513450000E-01
   152  1.5100000000000E+00  9.6678892719000E-03 -9.0043212742000E-01
   153  1.5200000000000E+00  1.1570144012000E-02 -8.7592329206000E-01
   154  1.5300000000000E+00  1.3227443727000E-02 -8.5080021900000E-01
   155  1.5400000000000E+00  1.4653169209000E-02 -8.2513611677000E-01
   156  1.5500000000000E+00  1.5860306860000E-02 -7.9900582815000E-01
   157  1.5600000000000E+00  1.6861994375000E-02 -7.7248514063000E-01
   158  1.5700000000000E+00  1.7671262590000E-02 -7.4565099417000E-01
   159  1.5800000000000E+00  1.8300822826000E-02 -7.1857952226000E-01
   160  1.5900000000000E+00  1.8763613004000E-02 -6.9134850784000E-01
   161  1.6000000000000E+00  1.9071762945000E-02 -6.6403230644000E-01
   162  1.6100000000000E+00  1.9237973520000E-02 -6.3670818216000E-01
   163  1.6200000000000E+00  1.9273666190000E-02 -6.0944679166000E-01
   164  1.6300000000000E+00  1.9191158664000E-02 -5.8232343360000E-01
   165  1.6400000000000E+00  1.9001064812000E-02 -5.5540341417000E-01
   166  1.6500000000000E+00  1.8715175711000E-02 -5.2875857738000E-01
   167  1.6600000000000E+00  1.8343225432000E-02 -5.0244754383000E-01
   168  1.6700000000000E+00  1.7896341411000E-02 -4.7653722209000E-01
   169  1.6800000000000E+00  1.7383332483000E-02 -4.5107856310000E-01
   170  1.6900000000000E+00  1.6814534665000E-02 -4.2613211991000E-01
   171  1.7000000000000E+00  1.6197812952000E-02 -4.0174056572000E-01
   172  1.7100000000000E+00  1.5542595363000E-02 -3.7795679016000E-01
   173  1.7200000000000E+00  1.4855811163000E-02 -3.5481496823000E-01
   174  1.7300000000000E+00  1.4145876747000E-02 -3.3235918542000E-01
   175  1.7400000000000E+00  1.3418819370000E-02 -3.1061527619000E-01
   176  1.7500000000000E+00  1.2681955554000E-02 -2.8961761442000E-01
   177  1.7600000000000E+00  1.1940466896000E-02 -2.6938418860000E-01
   178  1.7700000000000E+00  1.1200501095000E-02 -2.4993907384000E-01
   179  1.7800000000000E+00  1.0466467393000E-02 -2.3129316133000E-01
   180  1.7900000000000E+00  9.7433010990000E-03 -2.1346007463000E-01
   181  1.8000000000000E+00  9.0347206415000E-03 -1.9644448296000E-01
   182  1.8100000000000E+00  8.3444389814000E-03 -1.8024997854000E-01
   183  1.8200000000000E+00  7.6755621460000E-03 -1.6487584751000E-01
   184  1.8300000000000E+00  7.0306139688000E-03 -1.5031678919000E-01
   185  1.8400000000000E+00  6.4121507108000E-03 -1.3656733789000E-01
   186  1.8500000000000E+00  5.8215925025000E-03 -1.2361527174000E-01
   187  1.8600000000000E+00  5.2609812538000E-03 -1.1145066488000E-01
   188  1.8700000000000E+00  4.7308107869000E-03 -1.0005724970000E-01
   189  1.8800000000000E+00  4.2325073974000E-03 -8.9420439750000E-02
   190  1.8900000000000E+00  3.7660078033000E-03 -7.9523139757000E-02
   191  1.9000000000000E+00  3.3318589589000E-03 -7.0347469803000E-02
   192  1.9100000000000E+00  2.9298190761000E-03 -6.1876454736000E-02
   193  1.9200000000000E+00  2.5596322597000E-03 -5.4093496515000E-02
   194  1.9300000000000E+00  2.2208684565000E-03 -4.6979794259000E-02
   195  1.9400000000000E+00  1.9125888634000E-03 -4.0514088180000E-02
   196  1.9500000000000E+00  1.6341547620000E-03 -3.4677043231000E-02
   197  1.9600000000000E+00  1.3841450439000E-03 -2.9438081104000E-02
   198  1.9700000000000E+00  1.1614811977000E-03 -2.4771115357000E-02
   199  1.9800000000000E+00  9.6463674948000E-04 -2.0643533358000E-02
   200  1.9900000000000E+00  7.9209253965000E-04 -1.7022347343000E-02
   201  2.0000000000000E+00  6.4227096037000E-04 -1.3873799336000E-02
   202  2.0100000000000E+00  5.1346001196000E-04 -1.1162444360000E-02
   203  2.0200000000000E+00  4.0391855488000E-04 -8.8513986155000E-03
   204  2.0300000000000E+00  3.1197678688000E-04 -6.9066292636000E-03
   205  2.0400000000000E+00  2.3579763264000E-04 -5.2900802112000E-03
   206  2.0500000000000E+00  1.7373678269000E-04 -3.9680132650000E-03
   207  2.0600000000000E+00  1.2413101355000E-04 -2.9064147229000E-03
   208  2.0700000000000E+00  8.5204969001000E-05 -2.0688882358000E-03
   209  2.0800000000000E+00  5.5642013373000E-05 -1.4284057690000E-03
   210  2.0900000000000E+00  3.3704930064000E-05 -9.4947944579000E-04
   211  2.1000000000000E+00  1.8200020959000E-05 -6.0735583504000E-04
   212  2.1100000000000E+00  7.8533646504000E-06 -3.7569733910000E-04
   213  2.1200000000000E+00  1.2855159506000E-06 -2.2605243478000E-04
   214  2.1300000000000E+00 -2.2223972407000E-06 -1.4279847103000E-04
   215  2.1400000000000E+00 -4.1289884411000E-06 -1.0200956924000E-04
   216  2.1500000000000E+00 -4.7124485059000E-06 -8.7075621864000E-05
   217  2.1600000000000E+00 -4.0879113765000E-06 -7.7816236223000E-05
   218  2.1700000000000E+00 -2.5066654777000E-06 -4.3623754950000E-05
   219  2.1800000000000E+00 -7.0782178607000E-07 -1.1586718021000E-05
   220  2.1900000000000E+00  2.2276439826000E-07  4.3152030210000E-06
   221  2.2000000000000E+00  2.5199113086000E-07  4.8813585010000E-06
   222  2.2100000000000E+00  1.6939777647000E-08  3.2814300781000E-07
   223  2.2200000000000E+00  0.0000000000000E+00  0.0000000000000E+00
   224  2.2300000000000E+00  0.0000000000000E+00  0.0000000000000E+00
   225  2.2400000000000E+00  0.0000000000000E+00  0.0000000000000E+00
   226  2.2500000000000E+00  0.0000000000000E+00  0.0000000000000E+00
   227  2.2600000000000E+00  0.0000000000000E+00  0.0000000000000E+00
   228  2.2700000000000E+00  0.0000000000000E+00  0.0000000000000E+00
   229  2.2800000000000E+00  0.0000000000000E+00  0.0000000000000E+00
   230  2.2900000000000E+00  0.0000000000000E+00  0.0000000000000E+00
   231  2.3000000000000E+00  0.0000000000000E+00  0.0000000000000E+00
   232  2.3100000000000E+00  0.0000000000000E+00  0.0000000000000E+00
   233  2.3200000000000E+00  0.0000000000000E+00  0.0000000000000E+00
   234  2.3300000000000E+00  0.0000000000000E+00  0.0000000000000E+00
   235  2.3400000000000E+00  0.0000000000000E+00  0.0000000000000E+00
   236  2.3500000000000E+00  0.0000000000000E+00  0.0000000000000E+00
   237  2.3600000000000E+00  0.0000000000000E+00  0.0000000000000E+00
   238  2.3700000000000E+00  0.0000000000000E+00  0.0000000000000E+00
   239  2.3800000000000E+00  0.0000000000000E+00  0.0000000000000E+00
   240  2.3900000000000E+00  0.0000000000000E+00  0.0000000000000E+00
   241  2.4000000000000E+00  0.0000000000000E+00  0.0000000000000E+00
   242  2.4100000000000E+00  0.0000000000000E+00  0.0000000000000E+00
   243  2.4200000000000E+00  0.0000000000000E+00  0.0000000000000E+00
   244  2.4300000000000E+00  0.0000000000000E+00  0.0000000000000E+00
   245  2.4400000000000E+00  0.0000000000000E+00  0.0000000000000E+00
   246  2.4500000000000E+00  0.0000000000000E+00  0.0000000000000E+00
   247  2.4600000000000E+00  0.0000000000000E+00  0.0000000000000E+00
   248  2.4700000000000E+00  0.0000000000000E+00  0.0000000000000E+00
   249  2.4800000000000E+00  0.0000000000000E+00  0.0000000000000E+00
   250  2.4900000000000E+00  0.0000000000000E+00  0.0000000000000E+00
   251  2.5000000000000E+00  0.0000000000000E+00  0.0000000000000E+00
   252  2.5100000000000E+00  0.0000000000000E+00  0.0000000000000E+00
   253  2.5200000000000E+00  0.0000000000000E+00  0.0000000000000E+00
   254  2.5300000000000E+00  0.0000000000000E+00  0.0000000000000E+00
   255  2.5400000000000E+00  0.0000000000000E+00  0.0000000000000E+00
   256  2.5500000000000E+00  0.0000000000000E+00  0.0000000000000E+00
   257  2.5600000000000E+00  0.0000000000000E+00  0.0000000000000E+00
   258  2.5700000000000E+00  0.0000000000000E+00  0.0000000000000E+00
   259  2.5800000000000E+00  0.0000000000000E+00  0.0000000000000E+00
   260  2.5900000000000E+00  0.0000000000000E+00  0.0000000000000E+00
   261  2.6000000000000E+00  0.0000000000000E+00  0.0000000000000E+00
   262  2.6100000000000E+00  0.0000000000000E+00  0.0000000000000E+00
   263  2.6200000000000E+00  0.0000000000000E+00  0.0000000000000E+00
   264  2.6300000000000E+00  0.0000000000000E+00  0.0000000000000E+00
   265  2.6400000000000E+00  0.0000000000000E+00  0.0000000000000E+00
   266  2.6500000000000E+00  0.0000000000000E+00  0.0000000000000E+00
   267  2.6600000000000E+00  0.0000000000000E+00  0.0000000000000E+00
   268  2.6700000000000E+00  0.0000000000000E+00  0.0000000000000E+00
   269  2.6800000000000E+00  0.0000000000000E+00  0.0000000000000E+00
   270  2.6900000000000E+00  0.0000000000000E+00  0.0000000000000E+00
   271  2.7000000000000E+00  0.0000000000000E+00  0.0000000000000E+00
   272  2.7100000000000E+00  0.0000000000000E+00  0.0000000000000E+00
   273  2.7200000000000E+00  0.0000000000000E+00  0.0000000000000E+00
   274  2.7300000000000E+00  0.0000000000000E+00  0.0000000000000E+00
   275  2.7400000000000E+00  0.0000000000000E+00  0.0000000000000E+00
   276  2.7500000000000E+00  0.0000000000000E+00  0.0000000000000E+00
   277  2.7600000000000E+00  0.0000000000000E+00  0.0000000000000E+00
   278  2.7700000000000E+00  0.0000000000000E+00  0.0000000000000E+00
   279  2.7800000000000E+00  0.0000000000000E+00  0.0000000000000E+00
   280  2.7900000000000E+00  0.0000000000000E+00  0.0000000000000E+00
   281  2.8000000000000E+00  0.0000000000000E+00  0.0000000000000E+00
   282  2.8100000000000E+00  0.0000000000000E+00  0.0000000000000E+00
   283  2.8200000000000E+00  0.0000000000000E+00  0.0000000000000E+00
   284  2.8300000000000E+00  0.0000000000000E+00  0.0000000000000E+00
   285  2.8400000000000E+00  0.0000000000000E+00  0.0000000000000E+00
   286  2.8500000000000E+00  0.0000000000000E+00  0.0000000000000E+00
   287  2.8600000000000E+00  0.0000000000000E+00  0.0000000000000E+00
   288  2.8700000000000E+00  0.0000000000000E+00  0.0000000000000E+00
   289  2.8800000000000E+00  0.0000000000000E+00  0.0000000000000E+00
   290  2.8900000000000E+00  0.0000000000000E+00  0.0000000000000E+00
   291  2.9000000000000E+00  0.0000000000000E+00  0.0000000000000E+00
   292  2.9100000000000E+00  0.0000000000000E+00  0.0000000000000E+00
   293  2.9200000000000E+00  0.0000000000000E+00  0.0000000000000E+00
   294  2.9300000000000E+00  0.0000000000000E+00  0.0000000000000E+00
   295  2.9400000000000E+00  0.0000000000000E+00  0.0000000000000E+00
   296  2.9500000000000E+00  0.0000000000000E+00  0.0000000000000E+00
   297  2.9600000000000E+00  0.0000000000000E+00  0.0000000000000E+00
   298  2.9700000000000E+00  0.0000000000000E+00  0.0000000000000E+00
   299  2.9800000000000E+00  0.0000000000000E+00  0.0000000000000E+00
   300  2.9900000000000E+00  0.0000000000000E+00  0.0000000000000E+00
   301  3.0000000000000E+00  0.0000000000000E+00  0.0000000000000E+00
   302  3.0100000000000E+00  0.0000000000000E+00  0.0000000000000E+00
   303  3.0200000000000E+00  0.0000000000000E+00  0.0000000000000E+00
   304  3.0300000000000E+00  0.0000000000000E+00  0.0000000000000E+00
   305  3.0400000000000E+00  0.0000000000000E+00  0.0000000000000E+00
   306  3.0500000000000E+00  0.0000000000000E+00  0.0000000000000E+00
   307  3.0600000000000E+00  0.0000000000000E+00  0.0000000000000E+00
   308  3.0700000000000E+00  0.0000000000000E+00  0.0000000000000E+00
   309  3.0800000000000E+00  0.0000000000000E+00  0.0000000000000E+00
   310  3.0900000000000E+00  0.0000000000000E+00  0.0000000000000E+00
   311  3.1000000000000E+00  0.0000000000000E+00  0.0000000000000E+00
   312  3.1100000000000E+00  0.0000000000000E+00  0.0000000000000E+00
   313  3.1200000000000E+00  0.0000000000000E+00  0.0000000000000E+00
   314  3.1300000000000E+00  0.0000000000000E+00  0.0000000000000E+00
   315  3.1400000000000E+00  0.0000000000000E+00  0.0000000000000E+00
   316  3.1500000000000E+00  0.0000000000000E+00  0.0000000000000E+00
   317  3.1600000000000E+00  0.0000000000000E+00  0.0000000000000E+00
   318  3.1700000000000E+00  0.0000000000000E+00  0.0000000000000E+00
   319  3.1800000000000E+00  0.0000000000000E+00  0.0000000000000E+00
   320  3.1900000000000E+00  0.0000000000000E+00  0.0000000000000E+00
   321  3.2000000000000E+00  0.0000000000000E+00  0.0000000000000E+00
   322  3.2100000000000E+00  0.0000000000000E+00  0.0000000000000E+00
   323  3.2200000000000E+00  0.0000000000000E+00  0.0000000000000E+00
   324  3.2300000000000E+00  0.0000000000000E+00  0.0000000000000E+00
   325  3.2400000000000E+00  0.0000000000000E+00  0.0000000000000E+00
   326  3.2500000000000E+00  0.0000000000000E+00  0.0000000000000E+00
   327  3.2600000000000E+00  0.0000000000000E+00  0.0000000000000E+00
   328  3.2700000000000E+00  0.0000000000000E+00  0.0000000000000E+00
   329  3.2800000000000E+00  0.0000000000000E+00  0.0000000000000E+00
   330  3.2900000000000E+00  0.0000000000000E+00  0.0000000000000E+00
   331  3.3000000000000E+00  0.0000000000000E+00  0.0000000000000E+00
   332  3.3100000000000E+00  0.0000000000000E+00  0.0000000000000E+00
   333  3.3200000000000E+00  0.0000000000000E+00  0.0000000000000E+00
   334  3.3300000000000E+00  0.0000000000000E+00  0.0000000000000E+00
   335  3.3400000000000E+00  0.0000000000000E+00  0.0000000000000E+00
   336  3.3500000000000E+00  0.0000000000000E+00  0.0000000000000E+00
   337  3.3600000000000E+00  0.0000000000000E+00  0.0000000000000E+00
   338  3.3700000000000E+00  0.0000000000000E+00  0.0000000000000E+00
   339  3.3800000000000E+00  0.0000000000000E+00  0.0000000000000E+00
   340  3.3900000000000E+00  0.0000000000000E+00  0.0000000000000E+00
   341  3.4000000000000E+00  0.0000000000000E+00  0.0000000000000E+00
   342  3.4100000000000E+00  0.0000000000000E+00  0.0000000000000E+00
   343  3.4200000000000E+00  0.0000000000000E+00  0.0000000000000E+00
   344  3.4300000000000E+00  0.0000000000000E+00  0.0000000000000E+00
   345  3.4400000000000E+00  0.0000000000000E+00  0.0000000000000E+00
   346  3.4500000000000E+00  0.0000000000000E+00  0.0000000000000E+00
   347  3.4600000000000E+00  0.0000000000000E+00  0.0000000000000E+00
   348  3.4700000000000E+00  0.0000000000000E+00  0.0000000000000E+00
   349  3.4800000000000E+00  0.0000000000000E+00  0.0000000000000E+00
   350  3.4900000000000E+00  0.0000000000000E+00  0.0000000000000E+00
   351  3.5000000000000E+00  0.0000000000000E+00  0.0000000000000E+00
   352  3.5100000000000E+00  0.0000000000000E+00  0.0000000000000E+00
   353  3.5200000000000E+00  0.0000000000000E+00  0.0000000000000E+00
   354  3.5300000000000E+00  0.0000000000000E+00  0.0000000000000E+00
   355  3.5400000000000E+00  0.0000000000000E+00  0.0000000000000E+00
   356  3.5500000000000E+00  0.0000000000000E+00  0.0000000000000E+00
   357  3.5600000000000E+00  0.0000000000000E+00  0.0000000000000E+00
   358  3.5700000000000E+00  0.0000000000000E+00  0.0000000000000E+00
   359  3.5800000000000E+00  0.0000000000000E+00  0.0000000000000E+00
   360  3.5900000000000E+00  0.0000000000000E+00  0.0000000000000E+00
   361  3.6000000000000E+00  0.0000000000000E+00  0.0000000000000E+00
   362  3.6100000000000E+00  0.0000000000000E+00  0.0000000000000E+00
   363  3.6200000000000E+00  0.0000000000000E+00  0.0000000000000E+00
   364  3.6300000000000E+00  0.0000000000000E+00  0.0000000000000E+00
   365  3.6400000000000E+00  0.0000000000000E+00  0.0000000000000E+00
   366  3.6500000000000E+00  0.0000000000000E+00  0.0000000000000E+00
   367  3.6600000000000E+00  0.0000000000000E+00  0.0000000000000E+00
   368  3.6700000000000E+00  0.0000000000000E+00  0.0000000000000E+00
   369  3.6800000000000E+00  0.0000000000000E+00  0.0000000000000E+00
   370  3.6900000000000E+00  0.0000000000000E+00  0.0000000000000E+00
   371  3.7000000000000E+00  0.0000000000000E+00  0.0000000000000E+00
   372  3.7100000000000E+00  0.0000000000000E+00  0.0000000000000E+00
   373  3.7200000000000E+00  0.0000000000000E+00  0.0000000000000E+00
   374  3.7300000000000E+00  0.0000000000000E+00  0.0000000000000E+00
   375  3.7400000000000E+00  0.0000000000000E+00  0.0000000000000E+00
   376  3.7500000000000E+00  0.0000000000000E+00  0.0000000000000E+00
   377  3.7600000000000E+00  0.0000000000000E+00  0.0000000000000E+00
   378  3.7700000000000E+00  0.0000000000000E+00  0.0000000000000E+00
   379  3.7800000000000E+00  0.0000000000000E+00  0.0000000000000E+00
   380  3.7900000000000E+00  0.0000000000000E+00  0.0000000000000E+00
   381  3.8000000000000E+00  0.0000000000000E+00  0.0000000000000E+00
   382  3.8100000000000E+00  0.0000000000000E+00  0.0000000000000E+00
   383  3.8200000000000E+00  0.0000000000000E+00  0.0000000000000E+00
   384  3.8300000000000E+00  0.0000000000000E+00  0.0000000000000E+00
   385  3.8400000000000E+00  0.0000000000000E+00  0.0000000000000E+00
   386  3.8500000000000E+00  0.0000000000000E+00  0.0000000000000E+00
   387  3.8600000000000E+00  0.0000000000000E+00  0.0000000000000E+00
   388  3.8700000000000E+00  0.0000000000000E+00  0.0000000000000E+00
   389  3.8800000000000E+00  0.0000000000000E+00  0.0000000000000E+00
   390  3.8900000000000E+00  0.0000000000000E+00  0.0000000000000E+00
   391  3.9000000000000E+00  0.0000000000000E+00  0.0000000000000E+00
   392  3.9100000000000E+00  0.0000000000000E+00  0.0000000000000E+00
   393  3.9200000000000E+00  0.0000000000000E+00  0.0000000000000E+00
   394  3.9300000000000E+00  0.0000000000000E+00  0.0000000000000E+00
   395  3.9400000000000E+00  0.0000000000000E+00  0.0000000000000E+00
   396  3.9500000000000E+00  0.0000000000000E+00  0.0000000000000E+00
   397  3.9600000000000E+00  0.0000000000000E+00  0.0000000000000E+00
   398  3.9700000000000E+00  0.0000000000000E+00  0.0000000000000E+00
   399  3.9800000000000E+00  0.0000000000000E+00  0.0000000000000E+00
   400  3.9900000000000E+00  0.0000000000000E+00  0.0000000000000E+00
   401  4.0000000000000E+00  0.0000000000000E+00  0.0000000000000E+00
   402  4.0100000000000E+00  0.0000000000000E+00  0.0000000000000E+00
   403  4.0200000000000E+00  0.0000000000000E+00  0.0000000000000E+00
   404  4.0300000000000E+00  0.0000000000000E+00  0.0000000000000E+00
   405  4.0400000000000E+00  0.0000000000000E+00  0.0000000000000E+00
   406  4.0500000000000E+00  0.0000000000000E+00  0.0000000000000E+00
   407  4.0600000000000E+00  0.0000000000000E+00  0.0000000000000E+00
   408  4.0700000000000E+00  0.0000000000000E+00  0.0000000000000E+00
   409  4.0800000000000E+00  0.0000000000000E+00  0.0000000000000E+00
   410  4.0900000000000E+00  0.0000000000000E+00  0.0000000000000E+00
   411  4.1000000000000E+00  0.0000000000000E+00  0.0000000000000E+00
   412  4.1100000000000E+00  0.0000000000000E+00  0.0000000000000E+00
   413  4.1200000000000E+00  0.0000000000000E+00  0.0000000000000E+00
   414  4.1300000000000E+00  0.0000000000000E+00  0.0000000000000E+00
   415  4.1400000000000E+00  0.0000000000000E+00  0.0000000000000E+00
   416  4.1500000000000E+00  0.0000000000000E+00  0.0000000000000E+00
   417  4.1600000000000E+00  0.0000000000000E+00  0.0000000000000E+00
   418  4.1700000000000E+00  0.0000000000000E+00  0.0000000000000E+00
   419  4.1800000000000E+00  0.0000000000000E+00  0.0000000000000E+00
   420  4.1900000000000E+00  0.0000000000000E+00  0.0000000000000E+00
   421  4.2000000000000E+00  0.0000000000000E+00  0.0000000000000E+00
   422  4.2100000000000E+00  0.0000000000000E+00  0.0000000000000E+00
   423  4.2200000000000E+00  0.0000000000000E+00  0.0000000000000E+00