Ni   ONCVPSP-2.1.1   r_core=    2.18311 2.18311 2.26265
    28.0000   18.0000   150105   zatom,zion,pspd
    8   11   2   4   600   0   pspcod,pspxc,lmax,lloc,mmax,r2well
    5.99000000   0.00000000   0.00000000   rchrg fchrg qchrg
    2   2   2   0   0   nproj
    1   1   extension_switch
       0                        -3.4509125202000E+00 -2.0853846716000E-01
     1  0.0000000000000E+00  0.0000000000000E+00  0.0000000000000E+00
     2  1.0000000000000E-02 -4.2185586607000E-02  3.8832382367000E-02
     3  2.0000000000000E-02 -8.4325280704000E-02  7.7568133363000E-02
     4  3.0000000000000E-02 -1.2637326156000E-01  1.1611086324000E-01
     5  4.0000000000000E-02 -1.6828385185000E-01  1.5436466477000E-01
     6  5.0000000000000E-02 -2.1001158904000E-01  1.9223435281000E-01
     7  6.0000000000000E-02 -2.5151129637000E-01  2.2962570172000E-01
     8  7.0000000000000E-02 -2.9273815320000E-01  2.6644568004000E-01
     9  8.0000000000000E-02 -3.3364776486000E-01  3.0260268173000E-01
    10  9.0000000000000E-02 -3.7419623151000E-01  3.3800675329000E-01
    11  1.0000000000000E-01 -4.1434021621000E-01  3.7256981618000E-01
    12  1.1000000000000E-01 -4.5403701183000E-01  4.0620588374000E-01
    13  1.2000000000000E-01 -4.9324460681000E-01  4.3883127225000E-01
    14  1.3000000000000E-01 -5.3192174964000E-01  4.7036480528000E-01
    15  1.4000000000000E-01 -5.7002801183000E-01  5.0072801095000E-01
    16  1.5000000000000E-01 -6.0752384942000E-01  5.2984531137000E-01
    17  1.6000000000000E-01 -6.4437066276000E-01  5.5764420401000E-01
    18  1.7000000000000E-01 -6.8053085454000E-01  5.8405543413000E-01
    19  1.8000000000000E-01 -7.1596788592000E-01  6.0901315811000E-01
    20  1.9000000000000E-01 -7.5064633076000E-01  6.3245509723000E-01
    21  2.0000000000000E-01 -7.8453192765000E-01  6.5432268119000E-01
    22  2.1000000000000E-01 -8.1759162983000E-01  6.7456118136000E-01
    23  2.2000000000000E-01 -8.4979365280000E-01  6.9311983322000E-01
    24  2.3000000000000E-01 -8.8110751969000E-01  7.0995194781000E-01
    25  2.4000000000000E-01 -9.1150410404000E-01  7.2501501176000E-01
    26  2.5000000000000E-01 -9.4095567012000E-01  7.3827077561000E-01
    27  2.6000000000000E-01 -9.6943591086000E-01  7.4968533102000E-01
    28  2.7000000000000E-01 -9.9691998284000E-01  7.5922917521000E-01
    29  2.8000000000000E-01 -1.0233845387000E+00  7.6687726383000E-01
    30  2.9000000000000E-01 -1.0488077570000E+00  7.7260905181000E-01
    31  3.0000000000000E-01 -1.0731693688000E+00  7.7640852188000E-01
    32  3.1000000000000E-01 -1.0964506820000E+00  7.7826420101000E-01
    33  3.2000000000000E-01 -1.1186346024000E+00  7.7816916467000E-01
    34  3.3000000000000E-01 -1.1397056516000E+00  7.7612102869000E-01
    35  3.4000000000000E-01 -1.1596499830000E+00  7.7212193063000E-01
    36  3.5000000000000E-01 -1.1784553934000E+00  7.6617849698000E-01
    37  3.6000000000000E-01 -1.1961113331000E+00  7.5830180110000E-01
    38  3.7000000000000E-01 -1.2126089115000E+00  7.4850730810000E-01
    39  3.8000000000000E-01 -1.2279409014000E+00  7.3681480947000E-01
    40  3.9000000000000E-01 -1.2421017390000E+00  7.2324834635000E-01
    41  4.0000000000000E-01 -1.2550875213000E+00  7.0783612260000E-01
    42  4.1000000000000E-01 -1.2668960012000E+00  6.9061040743000E-01
    43  4.2000000000000E-01 -1.2775265786000E+00  6.7160742825000E-01
    44  4.3000000000000E-01 -1.2869802898000E+00  6.5086725398000E-01
    45  4.4000000000000E-01 -1.2952597928000E+00  6.2843366934000E-01
    46  4.5000000000000E-01 -1.3023693510000E+00  6.0435404047000E-01
    47  4.6000000000000E-01 -1.3083148132000E+00  5.7867917245000E-01
    48  4.7000000000000E-01 -1.3131035917000E+00  5.5146315911000E-01
    49  4.8000000000000E-01 -1.3167446367000E+00  5.2276322584000E-01
    50  4.9000000000000E-01 -1.3192484097000E+00  4.9263957137000E-01
    51  5.0000000000000E-01 -1.3206268521000E+00  4.6115518354000E-01
    52  5.1000000000000E-01 -1.3208933533000E+00  4.2837567420000E-01
    53  5.2000000000000E-01 -1.3200627174000E+00  3.9436910744000E-01
    54  5.3000000000000E-01 -1.3181511226000E+00  3.5920579128000E-01
    55  5.4000000000000E-01 -1.3151760842000E+00  3.2295810480000E-01
    56  5.5000000000000E-01 -1.3111564146000E+00  2.8570031650000E-01
    57  5.6000000000000E-01 -1.3061121731000E+00  2.4750834806000E-01
    58  5.7000000000000E-01 -1.3000646321000E+00  2.0845964480000E-01
    59  5.8000000000000E-01 -1.2930362143000E+00  1.6863289107000E-01
    60  5.9000000000000E-01 -1.2850504610000E+00  1.2810790391000E-01
    61  6.0000000000000E-01 -1.2761319653000E+00  8.6965347822000E-02
    62  6.1000000000000E-01 -1.2663063308000E+00  4.5286590451000E-02
    63  6.2000000000000E-01 -1.2556001184000E+00  3.1535038426000E-03
    64  6.3000000000000E-01 -1.2440407776000E+00 -3.9351799628000E-02
    65  6.4000000000000E-01 -1.2316566113000E+00 -8.2147066602000E-02
    66  6.5000000000000E-01 -1.2184767063000E+00 -1.2515015652000E-01
    67  6.6000000000000E-01 -1.2045308693000E+00 -1.6827925661000E-01
    68  6.7000000000000E-01 -1.1898495825000E+00 -2.1145300888000E-01
    69  6.8000000000000E-01 -1.1744639482000E+00 -2.5459068186000E-01
    70  6.9000000000000E-01 -1.1584056006000E+00 -2.9761246491000E-01
    71  7.0000000000000E-01 -1.1417066701000E+00 -3.4043954314000E-01
    72  7.1000000000000E-01 -1.1243997179000E+00 -3.8299428893000E-01
    73  7.2000000000000E-01 -1.1065176746000E+00 -4.2520043093000E-01
    74  7.3000000000000E-01 -1.0880937873000E+00 -4.6698318669000E-01
    75  7.4000000000000E-01 -1.0691615293000E+00 -5.0826951950000E-01
    76  7.5000000000000E-01 -1.0497545699000E+00 -5.4898817957000E-01
    77  7.6000000000000E-01 -1.0299067041000E+00 -5.8906987972000E-01
    78  7.7000000000000E-01 -1.0096517927000E+00 -6.2844743035000E-01
    79  7.8000000000000E-01 -9.8902370327000E-01 -6.6705586718000E-01
    80  7.9000000000000E-01 -9.6805625072000E-01 -7.0483257159000E-01
    81  8.0000000000000E-01 -9.4678313984000E-01 -7.4171738344000E-01
    82  8.1000000000000E-01 -9.2523790807000E-01 -7.7765270618000E-01
    83  8.2000000000000E-01 -9.0345386944000E-01 -8.1258360412000E-01
    84  8.3000000000000E-01 -8.8146405967000E-01 -8.4645789184000E-01
    85  8.4000000000000E-01 -8.5930118238000E-01 -8.7922621552000E-01
    86  8.5000000000000E-01 -8.3699755670000E-01 -9.1084212637000E-01
    87  8.6000000000000E-01 -8.1458506618000E-01 -9.4126214585000E-01
    88  8.7000000000000E-01 -7.9209510929000E-01 -9.7044582286000E-01
    89  8.8000000000000E-01 -7.6955855134000E-01 -9.9835578282000E-01
    90  8.9000000000000E-01 -7.4700567825000E-01 -1.0249577687000E+00
    91  9.0000000000000E-01 -7.2446615188000E-01 -1.0502206736000E+00
    92  9.1000000000000E-01 -7.0196896734000E-01 -1.0741165663000E+00
    93  9.2000000000000E-01 -6.7954241212000E-01 -1.0966207073000E+00
    94  9.3000000000000E-01 -6.5721402725000E-01 -1.1177115584000E+00
    95  9.4000000000000E-01 -6.3501057057000E-01 -1.1373707835000E+00
    96  9.5000000000000E-01 -6.1295798206000E-01 -1.1555832422000E+00
    97  9.6000000000000E-01 -5.9108135155000E-01 -1.1723369760000E+00
    98  9.7000000000000E-01 -5.6940488997000E-01 -1.1876231841000E+00
    99  9.8000000000000E-01 -5.4795193258000E-01 -1.2014361524000E+00
   100  9.9000000000000E-01 -5.2674481111000E-01 -1.2137733699000E+00
   101  1.0000000000000E+00 -5.0580492971000E-01 -1.2246353306000E+00
   102  1.0100000000000E+00 -4.8515271307000E-01 -1.2340255348000E+00
   103  1.0200000000000E+00 -4.6480758808000E-01 -1.2419504340000E+00
   104  1.0300000000000E+00 -4.4478796815000E-01 -1.2484193692000E+00
   105  1.0400000000000E+00 -4.2511128757000E-01 -1.2534444667000E+00
   106  1.0500000000000E+00 -4.0579384688000E-01 -1.2570406970000E+00
   107  1.0600000000000E+00 -3.8685092470000E-01 -1.2592256684000E+00
   108  1.0700000000000E+00 -3.6829675221000E-01 -1.2600195700000E+00
   109  1.0800000000000E+00 -3.5014450226000E-01 -1.2594450927000E+00
   110  1.0900000000000E+00 -3.3240635286000E-01 -1.2575273327000E+00
   111  1.1000000000000E+00 -3.1509327136000E-01 -1.2542937486000E+00
   112  1.1100000000000E+00 -2.9821523151000E-01 -1.2497739752000E+00
   113  1.1200000000000E+00 -2.8178115542000E-01 -1.2439997539000E+00
   114  1.1300000000000E+00 -2.6579897751000E-01 -1.2370048708000E+00
   115  1.1400000000000E+00 -2.5027547240000E-01 -1.2288249694000E+00
   116  1.1500000000000E+00 -2.3521641667000E-01 -1.2194974491000E+00
   117  1.1600000000000E+00 -2.2062659509000E-01 -1.2090613796000E+00
   118  1.1700000000000E+00 -2.0650985290000E-01 -1.1975575052000E+00
   119  1.1800000000000E+00 -1.9286889958000E-01 -1.1850277641000E+00
   120  1.1900000000000E+00 -1.7970555835000E-01 -1.1715154615000E+00
   121  1.2000000000000E+00 -1.6702075000000E-01 -1.1570652158000E+00
   122  1.2100000000000E+00 -1.5481441195000E-01 -1.1417225840000E+00
   123  1.2200000000000E+00 -1.4308556912000E-01 -1.1255339001000E+00
   124  1.2300000000000E+00 -1.3183242839000E-01 -1.1085464980000E+00
   125  1.2400000000000E+00 -1.2105233802000E-01 -1.0908084597000E+00
   126  1.2500000000000E+00 -1.1074178274000E-01 -1.0723679662000E+00
   127  1.2600000000000E+00 -1.0089651424000E-01 -1.0532739422000E+00
   128  1.2700000000000E+00 -9.1511516569000E-02 -1.0335758059000E+00
   129  1.2800000000000E+00 -8.2581028090000E-02 -1.0133224352000E+00
   130  1.2900000000000E+00 -7.4098629288000E-02 -9.9256327655000E-01
   131  1.3000000000000E+00 -6.6057219085000E-02 -9.7134782122000E-01
   132  1.3100000000000E+00 -5.8449105158000E-02 -9.4972455465000E-01
   133  1.3200000000000E+00 -5.1265991555000E-02 -9.2774246119000E-01
   134  1.3300000000000E+00 -4.4499027938000E-02 -9.0544977114000E-01
   135  1.3400000000000E+00 -3.8138915096000E-02 -8.8289359646000E-01
   136  1.3500000000000E+00 -3.2175773769000E-02 -8.6012157065000E-01
   137  1.3600000000000E+00 -2.6599399481000E-02 -8.3717927890000E-01
   138  1.3700000000000E+00 -2.1399177487000E-02 -8.1411179790000E-01
   139  1.3800000000000E+00 -1.6563998513000E-02 -7.9096410324000E-01
   140  1.3900000000000E+00 -1.2082684629000E-02 -7.6777827140000E-01
   141  1.4000000000000E+00 -7.9435334336000E-03 -7.4459692434000E-01
   142  1.4100000000000E+00 -4.1347387002000E-03 -7.2146036620000E-01
   143  1.4200000000000E+00 -6.4433710830000E-04 -6.9840740697000E-01
   144  1.4300000000000E+00  2.5400843308000E-03 -6.7547684636000E-01
   145  1.4400000000000E+00  5.4306157646000E-03 -6.5270358823000E-01
   146  1.4500000000000E+00  8.0399130126000E-03 -6.3012335295000E-01
   147  1.4600000000000E+00  1.0380329652000E-02 -6.0776835977000E-01
   148  1.4700000000000E+00  1.2464395720000E-02 -5.8566993207000E-01
   149  1.4800000000000E+00  1.4304747262000E-02 -5.6385799447000E-01
   150  1.4900000000000E+00  1.5913581068000E-02 -5.4235909141000E-01
   151  1.5000000000000E+00  1.7303705625000E-02 -5.2120059279000E-01
   152  1.5100000000000E+00  1.8486952353000E-02 -5.0040461358000E-01
   153  1.5200000000000E+00  1.9475873013000E-02 -4.7999458092000E-01
   154  1.5300000000000E+00  2.0282154604000E-02 -4.5998939530000E-01
   155  1.5400000000000E+00  2.0917790031000E-02 -4.4040782347000E-01
   156  1.5500000000000E+00  2.1394302949000E-02 -4.2126572829000E-01
   157  1.5600000000000E+00  2.1722991476000E-02 -4.0257720014000E-01
   158  1.5700000000000E+00  2.1915122395000E-02 -3.8435497593000E-01
   159  1.5800000000000E+00  2.1981216956000E-02 -3.6660866429000E-01
   160  1.5900000000000E+00  2.1932185007000E-02 -3.4934779725000E-01
   161  1.6000000000000E+00  2.1777716903000E-02 -3.3257779701000E-01
   162  1.6100000000000E+00  2.1528265450000E-02 -3.1630495021000E-01
   163  1.6200000000000E+00  2.1192659182000E-02 -3.0053086532000E-01
   164  1.6300000000000E+00  2.0780799077000E-02 -2.8525860172000E-01
   165  1.6400000000000E+00  2.0300669171000E-02 -2.7048643886000E-01
   166  1.6500000000000E+00  1.9761445661000E-02 -2.5621414474000E-01
   167  1.6600000000000E+00  1.9170356030000E-02 -2.4243728112000E-01
   168  1.6700000000000E+00  1.8535760433000E-02 -2.2915251772000E-01
   169  1.6800000000000E+00  1.7864118714000E-02 -2.1635310653000E-01
   170  1.6900000000000E+00  1.7162972607000E-02 -2.0403301495000E-01
   171  1.7000000000000E+00  1.6437973734000E-02 -1.9218360156000E-01
   172  1.7100000000000E+00  1.5695870122000E-02 -1.8079657040000E-01
   173  1.7200000000000E+00  1.4941478815000E-02 -1.6986190851000E-01
   174  1.7300000000000E+00  1.4180787941000E-02 -1.5936949115000E-01
   175  1.7400000000000E+00  1.3417798589000E-02 -1.4930855669000E-01
   176  1.7500000000000E+00  1.2657695876000E-02 -1.3966760991000E-01
   177  1.7600000000000E+00  1.1903788798000E-02 -1.3043577241000E-01
   178  1.7700000000000E+00  1.1160380600000E-02 -1.2160081969000E-01
   179  1.7800000000000E+00  1.0430220152000E-02 -1.1315225570000E-01
   180  1.7900000000000E+00  9.7167153045000E-03 -1.0507794728000E-01
   181  1.8000000000000E+00  9.0221320756000E-03 -9.7368183790000E-02
   182  1.8100000000000E+00  8.3490092754000E-03 -9.0011915916000E-02
   183  1.8200000000000E+00  7.6992004840000E-03 -8.3000499940000E-02
   184  1.8300000000000E+00  7.0744286510000E-03 -7.6325141774000E-02
   185  1.8400000000000E+00  6.4761907491000E-03 -6.9978411173000E-02
   186  1.8500000000000E+00  5.9054800257000E-03 -6.3955178973000E-02
   187  1.8600000000000E+00  5.3634719769000E-03 -5.8249279368000E-02
   188  1.8700000000000E+00  4.8505395111000E-03 -5.2860160072000E-02
   189  1.8800000000000E+00  4.3675831668000E-03 -4.7784868501000E-02
   190  1.8900000000000E+00  3.9144356624000E-03 -4.3021459276000E-02
   191  1.9000000000000E+00  3.4914975288000E-03 -3.8569031122000E-02
   192  1.9100000000000E+00  3.0983403646000E-03 -3.4421740131000E-02
   193  1.9200000000000E+00  2.7346999377000E-03 -3.0574661731000E-02
   194  1.9300000000000E+00  2.4000113192000E-03 -2.7020797998000E-02
   195  1.9400000000000E+00  2.0934535279000E-03 -2.3751394664000E-02
   196  1.9500000000000E+00  1.8143043691000E-03 -2.0758217531000E-02
   197  1.9600000000000E+00  1.5613784252000E-03 -1.8030044590000E-02
   198  1.9700000000000E+00  1.3337100570000E-03 -1.5556857781000E-02
   199  1.9800000000000E+00  1.1299763903000E-03 -1.3326437239000E-02
   200  1.9900000000000E+00  9.4891107354000E-04 -1.1326717630000E-02
   201  2.0000000000000E+00  7.8916756538000E-04 -9.5451405149000E-03
   202  2.0100000000000E+00  6.4932033504000E-04 -7.9685997888000E-03
   203  2.0200000000000E+00  5.2792255272000E-04 -6.5836712623000E-03
   204  2.0300000000000E+00  4.2356548832000E-04 -5.3773726902000E-03
   205  2.0400000000000E+00  3.3470605372000E-04 -4.3355381765000E-03
   206  2.0500000000000E+00  2.5997816288000E-04 -3.4453592623000E-03
   207  2.0600000000000E+00  1.9792879557000E-04 -2.6933104621000E-03
   208  2.0700000000000E+00  1.4710828043000E-04 -2.0658152991000E-03
   209  2.0800000000000E+00  1.0631748889000E-04 -1.5511138376000E-03
   210  2.0900000000000E+00  7.4044795453000E-05 -1.1350654513000E-03
   211  2.1000000000000E+00  4.9260491237000E-05 -8.0699345426000E-04
   212  2.1100000000000E+00  3.0736906106000E-05 -5.5470842383000E-04
   213  2.1200000000000E+00  1.7312555772000E-05 -3.6642496698000E-04
   214  2.1300000000000E+00  8.1979954487000E-06 -2.3297921783000E-04
   215  2.1400000000000E+00  2.2027668300000E-06 -1.4224473893000E-04
   216  2.1500000000000E+00 -1.2628134659000E-06 -8.6335729170000E-05
   217  2.1600000000000E+00 -3.0341823490000E-06 -5.6310045287000E-05
   218  2.1700000000000E+00 -3.9379571824000E-06 -4.2859866244000E-05
   219  2.1800000000000E+00 -3.8333651177000E-06 -3.8639023135000E-05
   220  2.1900000000000E+00 -2.8056540470000E-06 -2.7176447495000E-05
   221  2.2000000000000E+00 -1.3208569802000E-06 -1.1834858130000E-05
   222  2.2100000000000E+00  3.1609583971000E-08  3.2983255422000E-07
   223  2.2200000000000E+00  2.4264632369000E-07  2.5319111060000E-06
   224  2.2300000000000E+00  1.3278656374000E-07  1.3855712724000E-06
   225  2.2400000000000E+00  0.0000000000000E+00  0.0000000000000E+00
   226  2.2500000000000E+00  0.0000000000000E+00  0.0000000000000E+00
   227  2.2600000000000E+00  0.0000000000000E+00  0.0000000000000E+00
   228  2.2700000000000E+00  0.0000000000000E+00  0.0000000000000E+00
   229  2.2800000000000E+00  0.0000000000000E+00  0.0000000000000E+00
   230  2.2900000000000E+00  0.0000000000000E+00  0.0000000000000E+00
   231  2.3000000000000E+00  0.0000000000000E+00  0.0000000000000E+00
   232  2.3100000000000E+00  0.0000000000000E+00  0.0000000000000E+00
   233  2.3200000000000E+00  0.0000000000000E+00  0.0000000000000E+00
   234  2.3300000000000E+00  0.0000000000000E+00  0.0000000000000E+00
   235  2.3400000000000E+00  0.0000000000000E+00  0.0000000000000E+00
   236  2.3500000000000E+00  0.0000000000000E+00  0.0000000000000E+00
   237  2.3600000000000E+00  0.0000000000000E+00  0.0000000000000E+00
   238  2.3700000000000E+00  0.0000000000000E+00  0.0000000000000E+00
   239  2.3800000000000E+00  0.0000000000000E+00  0.0000000000000E+00
   240  2.3900000000000E+00  0.0000000000000E+00  0.0000000000000E+00
   241  2.4000000000000E+00  0.0000000000000E+00  0.0000000000000E+00
   242  2.4100000000000E+00  0.0000000000000E+00  0.0000000000000E+00
   243  2.4200000000000E+00  0.0000000000000E+00  0.0000000000000E+00
   244  2.4300000000000E+00  0.0000000000000E+00  0.0000000000000E+00
   245  2.4400000000000E+00  0.0000000000000E+00  0.0000000000000E+00
   246  2.4500000000000E+00  0.0000000000000E+00  0.0000000000000E+00
   247  2.4600000000000E+00  0.0000000000000E+00  0.0000000000000E+00
   248  2.4700000000000E+00  0.0000000000000E+00  0.0000000000000E+00
   249  2.4800000000000E+00  0.0000000000000E+00  0.0000000000000E+00
   250  2.4900000000000E+00  0.0000000000000E+00  0.0000000000000E+00
   251  2.5000000000000E+00  0.0000000000000E+00  0.0000000000000E+00
   252  2.5100000000000E+00  0.0000000000000E+00  0.0000000000000E+00
   253  2.5200000000000E+00  0.0000000000000E+00  0.0000000000000E+00
   254  2.5300000000000E+00  0.0000000000000E+00  0.0000000000000E+00
   255  2.5400000000000E+00  0.0000000000000E+00  0.0000000000000E+00
   256  2.5500000000000E+00  0.0000000000000E+00  0.0000000000000E+00
   257  2.5600000000000E+00  0.0000000000000E+00  0.0000000000000E+00
   258  2.5700000000000E+00  0.0000000000000E+00  0.0000000000000E+00
   259  2.5800000000000E+00  0.0000000000000E+00  0.0000000000000E+00
   260  2.5900000000000E+00  0.0000000000000E+00  0.0000000000000E+00
   261  2.6000000000000E+00  0.0000000000000E+00  0.0000000000000E+00
   262  2.6100000000000E+00  0.0000000000000E+00  0.0000000000000E+00
   263  2.6200000000000E+00  0.0000000000000E+00  0.0000000000000E+00
   264  2.6300000000000E+00  0.0000000000000E+00  0.0000000000000E+00
   265  2.6400000000000E+00  0.0000000000000E+00  0.0000000000000E+00
   266  2.6500000000000E+00  0.0000000000000E+00  0.0000000000000E+00
   267  2.6600000000000E+00  0.0000000000000E+00  0.0000000000000E+00
   268  2.6700000000000E+00  0.0000000000000E+00  0.0000000000000E+00
   269  2.6800000000000E+00  0.0000000000000E+00  0.0000000000000E+00
   270  2.6900000000000E+00  0.0000000000000E+00  0.0000000000000E+00
   271  2.7000000000000E+00  0.0000000000000E+00  0.0000000000000E+00
   272  2.7100000000000E+00  0.0000000000000E+00  0.0000000000000E+00
   273  2.7200000000000E+00  0.0000000000000E+00  0.0000000000000E+00
   274  2.7300000000000E+00  0.0000000000000E+00  0.0000000000000E+00
   275  2.7400000000000E+00  0.0000000000000E+00  0.0000000000000E+00
   276  2.7500000000000E+00  0.0000000000000E+00  0.0000000000000E+00
   277  2.7600000000000E+00  0.0000000000000E+00  0.0000000000000E+00
   278  2.7700000000000E+00  0.0000000000000E+00  0.0000000000000E+00
   279  2.7800000000000E+00  0.0000000000000E+00  0.0000000000000E+00
   280  2.7900000000000E+00  0.0000000000000E+00  0.0000000000000E+00
   281  2.8000000000000E+00  0.0000000000000E+00  0.0000000000000E+00
   282  2.8100000000000E+00  0.0000000000000E+00  0.0000000000000E+00
   283  2.8200000000000E+00  0.0000000000000E+00  0.0000000000000E+00
   284  2.8300000000000E+00  0.0000000000000E+00  0.0000000000000E+00
   285  2.8400000000000E+00  0.0000000000000E+00  0.0000000000000E+00
   286  2.8500000000000E+00  0.0000000000000E+00  0.0000000000000E+00
   287  2.8600000000000E+00  0.0000000000000E+00  0.0000000000000E+00
   288  2.8700000000000E+00  0.0000000000000E+00  0.0000000000000E+00
   289  2.8800000000000E+00  0.0000000000000E+00  0.0000000000000E+00
   290  2.8900000000000E+00  0.0000000000000E+00  0.0000000000000E+00
   291  2.9000000000000E+00  0.0000000000000E+00  0.0000000000000E+00
   292  2.9100000000000E+00  0.0000000000000E+00  0.0000000000000E+00
   293  2.9200000000000E+00  0.0000000000000E+00  0.0000000000000E+00
   294  2.9300000000000E+00  0.0000000000000E+00  0.0000000000000E+00
   295  2.9400000000000E+00  0.0000000000000E+00  0.0000000000000E+00
   296  2.9500000000000E+00  0.0000000000000E+00  0.0000000000000E+00
   297  2.9600000000000E+00  0.0000000000000E+00  0.0000000000000E+00
   298  2.9700000000000E+00  0.0000000000000E+00  0.0000000000000E+00
   299  2.9800000000000E+00  0.0000000000000E+00  0.0000000000000E+00
   300  2.9900000000000E+00  0.0000000000000E+00  0.0000000000000E+00
   301  3.0000000000000E+00  0.0000000000000E+00  0.0000000000000E+00
   302  3.0100000000000E+00  0.0000000000000E+00  0.0000000000000E+00
   303  3.0200000000000E+00  0.0000000000000E+00  0.0000000000000E+00
   304  3.0300000000000E+00  0.0000000000000E+00  0.0000000000000E+00
   305  3.0400000000000E+00  0.0000000000000E+00  0.0000000000000E+00
   306  3.0500000000000E+00  0.0000000000000E+00  0.0000000000000E+00
   307  3.0600000000000E+00  0.0000000000000E+00  0.0000000000000E+00
   308  3.0700000000000E+00  0.0000000000000E+00  0.0000000000000E+00
   309  3.0800000000000E+00  0.0000000000000E+00  0.0000000000000E+00
   310  3.0900000000000E+00  0.0000000000000E+00  0.0000000000000E+00
   311  3.1000000000000E+00  0.0000000000000E+00  0.0000000000000E+00
   312  3.1100000000000E+00  0.0000000000000E+00  0.0000000000000E+00
   313  3.1200000000000E+00  0.0000000000000E+00  0.0000000000000E+00
   314  3.1300000000000E+00  0.0000000000000E+00  0.0000000000000E+00
   315  3.1400000000000E+00  0.0000000000000E+00  0.0000000000000E+00
   316  3.1500000000000E+00  0.0000000000000E+00  0.0000000000000E+00
   317  3.1600000000000E+00  0.0000000000000E+00  0.0000000000000E+00
   318  3.1700000000000E+00  0.0000000000000E+00  0.0000000000000E+00
   319  3.1800000000000E+00  0.0000000000000E+00  0.0000000000000E+00
   320  3.1900000000000E+00  0.0000000000000E+00  0.0000000000000E+00
   321  3.2000000000000E+00  0.0000000000000E+00  0.0000000000000E+00
   322  3.2100000000000E+00  0.0000000000000E+00  0.0000000000000E+00
   323  3.2200000000000E+00  0.0000000000000E+00  0.0000000000000E+00
   324  3.2300000000000E+00  0.0000000000000E+00  0.0000000000000E+00
   325  3.2400000000000E+00  0.0000000000000E+00  0.0000000000000E+00
   326  3.2500000000000E+00  0.0000000000000E+00  0.0000000000000E+00
   327  3.2600000000000E+00  0.0000000000000E+00  0.0000000000000E+00
   328  3.2700000000000E+00  0.0000000000000E+00  0.0000000000000E+00
   329  3.2800000000000E+00  0.0000000000000E+00  0.0000000000000E+00
   330  3.2900000000000E+00  0.0000000000000E+00  0.0000000000000E+00
   331  3.3000000000000E+00  0.0000000000000E+00  0.0000000000000E+00
   332  3.3100000000000E+00  0.0000000000000E+00  0.0000000000000E+00
   333  3.3200000000000E+00  0.0000000000000E+00  0.0000000000000E+00
   334  3.3300000000000E+00  0.0000000000000E+00  0.0000000000000E+00
   335  3.3400000000000E+00  0.0000000000000E+00  0.0000000000000E+00
   336  3.3500000000000E+00  0.0000000000000E+00  0.0000000000000E+00
   337  3.3600000000000E+00  0.0000000000000E+00  0.0000000000000E+00
   338  3.3700000000000E+00  0.0000000000000E+00  0.0000000000000E+00
   339  3.3800000000000E+00  0.0000000000000E+00  0.0000000000000E+00
   340  3.3900000000000E+00  0.0000000000000E+00  0.0000000000000E+00
   341  3.4000000000000E+00  0.0000000000000E+00  0.0000000000000E+00
   342  3.4100000000000E+00  0.0000000000000E+00  0.0000000000000E+00
   343  3.4200000000000E+00  0.0000000000000E+00  0.0000000000000E+00
   344  3.4300000000000E+00  0.0000000000000E+00  0.0000000000000E+00
   345  3.4400000000000E+00  0.0000000000000E+00  0.0000000000000E+00
   346  3.4500000000000E+00  0.0000000000000E+00  0.0000000000000E+00
   347  3.4600000000000E+00  0.0000000000000E+00  0.0000000000000E+00
   348  3.4700000000000E+00  0.0000000000000E+00  0.0000000000000E+00
   349  3.4800000000000E+00  0.0000000000000E+00  0.0000000000000E+00
   350  3.4900000000000E+00  0.0000000000000E+00  0.0000000000000E+00
   351  3.5000000000000E+00  0.0000000000000E+00  0.0000000000000E+00
   352  3.5100000000000E+00  0.0000000000000E+00  0.0000000000000E+00
   353  3.5200000000000E+00  0.0000000000000E+00  0.0000000000000E+00
   354  3.5300000000000E+00  0.0000000000000E+00  0.0000000000000E+00
   355  3.5400000000000E+00  0.0000000000000E+00  0.0000000000000E+00
   356  3.5500000000000E+00  0.0000000000000E+00  0.0000000000000E+00
   357  3.5600000000000E+00  0.0000000000000E+00  0.0000000000000E+00
   358  3.5700000000000E+00  0.0000000000000E+00  0.0000000000000E+00
   359  3.5800000000000E+00  0.0000000000000E+00  0.0000000000000E+00
   360  3.5900000000000E+00  0.0000000000000E+00  0.0000000000000E+00
   361  3.6000000000000E+00  0.0000000000000E+00  0.0000000000000E+00
   362  3.6100000000000E+00  0.0000000000000E+00  0.0000000000000E+00
   363  3.6200000000000E+00  0.0000000000000E+00  0.0000000000000E+00
   364  3.6300000000000E+00  0.0000000000000E+00  0.0000000000000E+00
   365  3.6400000000000E+00  0.0000000000000E+00  0.0000000000000E+00
   366  3.6500000000000E+00  0.0000000000000E+00  0.0000000000000E+00
   367  3.6600000000000E+00  0.0000000000000E+00  0.0000000000000E+00
   368  3.6700000000000E+00  0.0000000000000E+00  0.0000000000000E+00
   369  3.6800000000000E+00  0.0000000000000E+00  0.0000000000000E+00
   370  3.6900000000000E+00  0.0000000000000E+00  0.0000000000000E+00
   371  3.7000000000000E+00  0.0000000000000E+00  0.0000000000000E+00
   372  3.7100000000000E+00  0.0000000000000E+00  0.0000000000000E+00
   373  3.7200000000000E+00  0.0000000000000E+00  0.0000000000000E+00
   374  3.7300000000000E+00  0.0000000000000E+00  0.0000000000000E+00
   375  3.7400000000000E+00  0.0000000000000E+00  0.0000000000000E+00
   376  3.7500000000000E+00  0.0000000000000E+00  0.0000000000000E+00
   377  3.7600000000000E+00  0.0000000000000E+00  0.0000000000000E+00
   378  3.7700000000000E+00  0.0000000000000E+00  0.0000000000000E+00
   379  3.7800000000000E+00  0.0000000000000E+00  0.0000000000000E+00
   380  3.7900000000000E+00  0.0000000000000E+00  0.0000000000000E+00
   381  3.8000000000000E+00  0.0000000000000E+00  0.0000000000000E+00
   382  3.8100000000000E+00  0.0000000000000E+00  0.0000000000000E+00
   383  3.8200000000000E+00  0.0000000000000E+00  0.0000000000000E+00
   384  3.8300000000000E+00  0.0000000000000E+00  0.0000000000000E+00
   385  3.8400000000000E+00  0.0000000000000E+00  0.0000000000000E+00
   386  3.8500000000000E+00  0.0000000000000E+00  0.0000000000000E+00
   387  3.8600000000000E+00  0.0000000000000E+00  0.0000000000000E+00
   388  3.8700000000000E+00  0.0000000000000E+00  0.0000000000000E+00
   389  3.8800000000000E+00  0.0000000000000E+00  0.0000000000000E+00
   390  3.8900000000000E+00  0.0000000000000E+00  0.0000000000000E+00
   391  3.9000000000000E+00  0.0000000000000E+00  0.0000000000000E+00
   392  3.9100000000000E+00  0.0000000000000E+00  0.0000000000000E+00
   393  3.9200000000000E+00  0.0000000000000E+00  0.0000000000000E+00
   394  3.9300000000000E+00  0.0000000000000E+00  0.0000000000000E+00
   395  3.9400000000000E+00  0.0000000000000E+00  0.0000000000000E+00
   396  3.9500000000000E+00  0.0000000000000E+00  0.0000000000000E+00
   397  3.9600000000000E+00  0.0000000000000E+00  0.0000000000000E+00
   398  3.9700000000000E+00  0.0000000000000E+00  0.0000000000000E+00
   399  3.9800000000000E+00  0.0000000000000E+00  0.0000000000000E+00
   400  3.9900000000000E+00  0.0000000000000E+00  0.0000000000000E+00
   401  4.0000000000000E+00  0.0000000000000E+00  0.0000000000000E+00
   402  4.0100000000000E+00  0.0000000000000E+00  0.0000000000000E+00
   403  4.0200000000000E+00  0.0000000000000E+00  0.0000000000000E+00
   404  4.0300000000000E+00  0.0000000000000E+00  0.0000000000000E+00
   405  4.0400000000000E+00  0.0000000000000E+00  0.0000000000000E+00
   406  4.0500000000000E+00  0.0000000000000E+00  0.0000000000000E+00
   407  4.0600000000000E+00  0.0000000000000E+00  0.0000000000000E+00
   408  4.0700000000000E+00  0.0000000000000E+00  0.0000000000000E+00
   409  4.0800000000000E+00  0.0000000000000E+00  0.0000000000000E+00
   410  4.0900000000000E+00  0.0000000000000E+00  0.0000000000000E+00
   411  4.1000000000000E+00  0.0000000000000E+00  0.0000000000000E+00
   412  4.1100000000000E+00  0.0000000000000E+00  0.0000000000000E+00
   413  4.1200000000000E+00  0.0000000000000E+00  0.0000000000000E+00
   414  4.1300000000000E+00  0.0000000000000E+00  0.0000000000000E+00
   415  4.1400000000000E+00  0.0000000000000E+00  0.0000000000000E+00
   416  4.1500000000000E+00  0.0000000000000E+00  0.0000000000000E+00
   417  4.1600000000000E+00  0.0000000000000E+00  0.0000000000000E+00
   418  4.1700000000000E+00  0.0000000000000E+00  0.0000000000000E+00
   419  4.1800000000000E+00  0.0000000000000E+00  0.0000000000000E+00
   420  4.1900000000000E+00  0.0000000000000E+00  0.0000000000000E+00
   421  4.2000000000000E+00  0.0000000000000E+00  0.0000000000000E+00
   422  4.2100000000000E+00  0.0000000000000E+00  0.0000000000000E+00
   423  4.2200000000000E+00  0.0000000000000E+00  0.0000000000000E+00