Cu   ONCVPSP-2.1.1   r_core=    1.91598 1.87081 1.89326
    29.0000   19.0000   150105   zatom,zion,pspd
    8   11   2   4   600   0   pspcod,pspxc,lmax,lloc,mmax,r2well
    5.99000000   0.00000000   0.00000000   rchrg fchrg qchrg
    2   2   2   0   0   nproj
    1   1   extension_switch
       0                        -3.3089210127500E+00 -8.2482374690000E-02
     1  0.0000000000000E+00  0.0000000000000E+00  0.0000000000000E+00
     2  1.0000000000000E-02 -4.4320927876000E-02  7.6491424157000E-02
     3  2.0000000000000E-02 -8.8588410938000E-02  1.5244733542000E-01
     4  3.0000000000000E-02 -1.3274911615000E-01  2.2733617371000E-01
     5  4.0000000000000E-02 -1.7674993362000E-01  3.0063425474000E-01
     6  5.0000000000000E-02 -2.2053808705000E-01  3.7182963363000E-01
     7  6.0000000000000E-02 -2.6406124297000E-01  4.4042587995000E-01
     8  7.0000000000000E-02 -3.0726761823000E-01  5.0594573580000E-01
     9  8.0000000000000E-02 -3.5010608539000E-01  5.6793462929000E-01
    10  9.0000000000000E-02 -3.9252627561000E-01  6.2596401695000E-01
    11  1.0000000000000E-01 -4.3447867869000E-01  6.7963453002000E-01
    12  1.1000000000000E-01 -4.7591473983000E-01  7.2857890063000E-01
    13  1.2000000000000E-01 -5.1678695285000E-01  7.7246464622000E-01
    14  1.3000000000000E-01 -5.5704894954000E-01  8.1099649166000E-01
    15  1.4000000000000E-01 -5.9665558478000E-01  8.4391851130000E-01
    16  1.5000000000000E-01 -6.3556301722000E-01  8.7101597428000E-01
    17  1.6000000000000E-01 -6.7372878533000E-01  8.9211688009000E-01
    18  1.7000000000000E-01 -7.1111187847000E-01  9.0709317182000E-01
    19  1.8000000000000E-01 -7.4767280292000E-01  9.1586161934000E-01
    20  1.9000000000000E-01 -7.8337364267000E-01  9.1838436547000E-01
    21  2.0000000000000E-01 -8.1817811485000E-01  9.1466912985000E-01
    22  2.1000000000000E-01 -8.5205161971000E-01  9.0476907170000E-01
    23  2.2000000000000E-01 -8.8496128510000E-01  8.8878231041000E-01
    24  2.3000000000000E-01 -9.1687600539000E-01  8.6685110916000E-01
    25  2.4000000000000E-01 -9.4776647490000E-01  8.3916072731000E-01
    26  2.5000000000000E-01 -9.7760521576000E-01  8.0593795157000E-01
    27  2.6000000000000E-01 -1.0063666005000E+00  7.6744931427000E-01
    28  2.7000000000000E-01 -1.0340268689000E+00  7.2399901641000E-01
    29  2.8000000000000E-01 -1.0605641403000E+00  6.7592657077000E-01
    30  2.9000000000000E-01 -1.0859584200000E+00  6.2360417951000E-01
    31  3.0000000000000E-01 -1.1101916014000E+00  5.6743386919000E-01
    32  3.1000000000000E-01 -1.1332474630000E+00  5.0784440422000E-01
    33  3.2000000000000E-01 -1.1551116614000E+00  4.4528800496000E-01
    34  3.3000000000000E-01 -1.1757717190000E+00  3.8023691658000E-01
    35  3.4000000000000E-01 -1.1952170091000E+00  3.1317973820000E-01
    36  3.5000000000000E-01 -1.2134387360000E+00  2.4461781926000E-01
    37  3.6000000000000E-01 -1.2304299119000E+00  1.7506130806000E-01
    38  3.7000000000000E-01 -1.2461853313000E+00  1.0502542210000E-01
    39  3.8000000000000E-01 -1.2607015415000E+00  3.5026463123000E-02
    40  3.9000000000000E-01 -1.2739768108000E+00 -3.4422093077000E-02
    41  4.0000000000000E-01 -1.2860110944000E+00 -1.0281342067000E-01
    42  4.1000000000000E-01 -1.2968059987000E+00 -1.6965118442000E-01
    43  4.2000000000000E-01 -1.3063647427000E+00 -2.3445327238000E-01
    44  4.3000000000000E-01 -1.3146921193000E+00 -2.9675541301000E-01
    45  4.4000000000000E-01 -1.3217944542000E+00 -3.5611465012000E-01
    46  4.5000000000000E-01 -1.3276795645000E+00 -4.1211265008000E-01
    47  4.6000000000000E-01 -1.3323567165000E+00 -4.6435881559000E-01
    48  4.7000000000000E-01 -1.3358365831000E+00 -5.1249318067000E-01
    49  4.8000000000000E-01 -1.3381312013000E+00 -5.5618904023000E-01
    50  4.9000000000000E-01 -1.3392539299000E+00 -5.9515528120000E-01
    51  5.0000000000000E-01 -1.3392194036000E+00 -6.2913882655000E-01
    52  5.1000000000000E-01 -1.3380434938000E+00 -6.5792613318000E-01
    53  5.2000000000000E-01 -1.3357432696000E+00 -6.8134457518000E-01
    54  5.3000000000000E-01 -1.3323369475000E+00 -6.9926430782000E-01
    55  5.4000000000000E-01 -1.3278438600000E+00 -7.1159846375000E-01
    56  5.5000000000000E-01 -1.3222844131000E+00 -7.1830396916000E-01
    57  5.6000000000000E-01 -1.3156800431000E+00 -7.1938197365000E-01
    58  5.7000000000000E-01 -1.3080531887000E+00 -7.1487719952000E-01
    59  5.8000000000000E-01 -1.2994272404000E+00 -7.0487815508000E-01
    60  5.9000000000000E-01 -1.2898265191000E+00 -6.8951571439000E-01
    61  6.0000000000000E-01 -1.2792762287000E+00 -6.6896245751000E-01
    62  6.1000000000000E-01 -1.2678024261000E+00 -6.4343108829000E-01
    63  6.2000000000000E-01 -1.2554319965000E+00 -6.1317253663000E-01
    64  6.3000000000000E-01 -1.2421925980000E+00 -5.7847435209000E-01
    65  6.4000000000000E-01 -1.2281126521000E+00 -5.3965802153000E-01
    66  6.5000000000000E-01 -1.2132213047000E+00 -4.9707664579000E-01
    67  6.6000000000000E-01 -1.1975483801000E+00 -4.5111207741000E-01
    68  6.7000000000000E-01 -1.1811243670000E+00 -4.0217194645000E-01
    69  6.8000000000000E-01 -1.1639803861000E+00 -3.5068666122000E-01
    70  6.9000000000000E-01 -1.1461481432000E+00 -2.9710577647000E-01
    71  7.0000000000000E-01 -1.1276599044000E+00 -2.4189459377000E-01
    72  7.1000000000000E-01 -1.1085484668000E+00 -1.8553071508000E-01
    73  7.2000000000000E-01 -1.0888471214000E+00 -1.2850032808000E-01
    74  7.3000000000000E-01 -1.0685896235000E+00 -7.1294740432000E-02
    75  7.4000000000000E-01 -1.0478101425000E+00 -1.4406001469000E-02
    76  7.5000000000000E-01 -1.0265432339000E+00  4.1676490403000E-02
    77  7.6000000000000E-01 -1.0048238019000E+00  9.6469554173000E-02
    78  7.7000000000000E-01 -9.8268705742000E-01  1.4949997160000E-01
    79  7.8000000000000E-01 -9.6016847561000E-01  2.0030803971000E-01
    80  7.9000000000000E-01 -9.3730375240000E-01  2.4845100580000E-01
    81  8.0000000000000E-01 -9.1412875861000E-01  2.9350635838000E-01
    82  8.1000000000000E-01 -8.9067949243000E-01  3.3507494896000E-01
    83  8.2000000000000E-01 -8.6699202979000E-01  3.7278392127000E-01
    84  8.3000000000000E-01 -8.4310247276000E-01  4.0628942597000E-01
    85  8.4000000000000E-01 -8.1904689591000E-01  4.3527910106000E-01
    86  8.5000000000000E-01 -7.9486129074000E-01  4.5947429992000E-01
    87  8.6000000000000E-01 -7.7058150804000E-01  4.7863205097000E-01
    88  8.7000000000000E-01 -7.4624319848000E-01  4.9254673516000E-01
    89  8.8000000000000E-01 -7.2188175142000E-01  5.0105146938000E-01
    90  8.9000000000000E-01 -6.9753223202000E-01  5.0401918648000E-01
    91  9.0000000000000E-01 -6.7322931693000E-01  5.0136340452000E-01
    92  9.1000000000000E-01 -6.4900722869000E-01  4.9303868068000E-01
    93  9.2000000000000E-01 -6.2489966904000E-01  4.7904074745000E-01
    94  9.3000000000000E-01 -6.0093975144000E-01  4.5940633173000E-01
    95  9.4000000000000E-01 -5.7715993308000E-01  4.3421266033000E-01
    96  9.5000000000000E-01 -5.5359194666000E-01  4.0357665810000E-01
    97  9.6000000000000E-01 -5.3026673231000E-01  3.6765384871000E-01
    98  9.7000000000000E-01 -5.0721439004000E-01  3.2663662256000E-01
    99  9.8000000000000E-01 -4.8446407889000E-01  2.8075341150000E-01
   100  9.9000000000000E-01 -4.6204393327000E-01  2.3026672662000E-01
   101  1.0000000000000E+00 -4.3998104705000E-01  1.7547013887000E-01
   102  1.0100000000000E+00 -4.1830139110000E-01  1.1668629993000E-01
   103  1.0200000000000E+00 -3.9702975312000E-01  5.4264359313000E-02
   104  1.0300000000000E+00 -3.7618969441000E-01 -1.1422780770000E-02
   105  1.0400000000000E+00 -3.5580352197000E-01 -7.9981017131000E-02
   106  1.0500000000000E+00 -3.3589206138000E-01 -1.5099848613000E-01
   107  1.0600000000000E+00 -3.1647479855000E-01 -2.2404900896000E-01
   108  1.0700000000000E+00 -2.9756977647000E-01 -2.9869506891000E-01
   109  1.0800000000000E+00 -2.7919358734000E-01 -3.7449060729000E-01
   110  1.0900000000000E+00 -2.6136132754000E-01 -4.5098386641000E-01
   111  1.1000000000000E+00 -2.4408637894000E-01 -5.2772393484000E-01
   112  1.1100000000000E+00 -2.2738062682000E-01 -6.0426104057000E-01
   113  1.1200000000000E+00 -2.1125436885000E-01 -6.8015023655000E-01
   114  1.1300000000000E+00 -1.9571641234000E-01 -7.5495120111000E-01
   115  1.1400000000000E+00 -1.8077364745000E-01 -8.2824174222000E-01
   116  1.1500000000000E+00 -1.6643146841000E-01 -8.9961137859000E-01
   117  1.1600000000000E+00 -1.5269369250000E-01 -9.6866491956000E-01
   118  1.1700000000000E+00 -1.3956254539000E-01 -1.0350247353000E+00
   119  1.1800000000000E+00 -1.2703843097000E-01 -1.0983433115000E+00
   120  1.1900000000000E+00 -1.1512029830000E-01 -1.1582934516000E+00
   121  1.2000000000000E+00 -1.0380565502000E-01 -1.2145679959000E+00
   122  1.2100000000000E+00 -9.3090261659000E-02 -1.2668974851000E+00
   123  1.2200000000000E+00 -8.2968444921000E-02 -1.3150410822000E+00
   124  1.2300000000000E+00 -7.3433201336000E-02 -1.3587817447000E+00
   125  1.2400000000000E+00 -6.4476036003000E-02 -1.3979386956000E+00
   126  1.2500000000000E+00 -5.6087072751000E-02 -1.4323693815000E+00
   127  1.2600000000000E+00 -4.8255273403000E-02 -1.4619548962000E+00
   128  1.2700000000000E+00 -4.0968323269000E-02 -1.4866122171000E+00
   129  1.2800000000000E+00 -3.4212745638000E-02 -1.5062996357000E+00
   130  1.2900000000000E+00 -2.7974063930000E-02 -1.5209969317000E+00
   131  1.3000000000000E+00 -2.2236753316000E-02 -1.5307211362000E+00
   132  1.3100000000000E+00 -1.6984446613000E-02 -1.5355262842000E+00
   133  1.3200000000000E+00 -1.2199899523000E-02 -1.5354849363000E+00
   134  1.3300000000000E+00 -7.8651659771000E-03 -1.5307087348000E+00
   135  1.3400000000000E+00 -3.9617547871000E-03 -1.5213357772000E+00
   136  1.3500000000000E+00 -4.7035672017000E-04 -1.5075207260000E+00
   137  1.3600000000000E+00  2.6284363159000E-03 -1.4894558308000E+00
   138  1.3700000000000E+00  5.3545796158000E-03 -1.4673459788000E+00
   139  1.3800000000000E+00  7.7284381681000E-03 -1.4414174658000E+00
   140  1.3900000000000E+00  9.7700982862000E-03 -1.4119172267000E+00
   141  1.4000000000000E+00  1.1500339658000E-02 -1.3791027608000E+00
   142  1.4100000000000E+00  1.2939380705000E-02 -1.3432481310000E+00
   143  1.4200000000000E+00  1.4107538944000E-02 -1.3046344560000E+00
   144  1.4300000000000E+00  1.5025278684000E-02 -1.2635539285000E+00
   145  1.4400000000000E+00  1.5711983313000E-02 -1.2202987128000E+00
   146  1.4500000000000E+00  1.6187823970000E-02 -1.1751713141000E+00
   147  1.4600000000000E+00  1.6471379473000E-02 -1.1284660054000E+00
   148  1.4700000000000E+00  1.6581550900000E-02 -1.0804809954000E+00
   149  1.4800000000000E+00  1.6536441158000E-02 -1.0315095641000E+00
   150  1.4900000000000E+00  1.6353164050000E-02 -9.8183238961000E-01
   151  1.5000000000000E+00  1.6049152865000E-02 -9.3173631713000E-01
   152  1.5100000000000E+00  1.5639589289000E-02 -8.8147570297000E-01
   153  1.5200000000000E+00  1.5140754520000E-02 -8.3132117410000E-01
   154  1.5300000000000E+00  1.4566190051000E-02 -7.8150025186000E-01
   155  1.5400000000000E+00  1.3930240656000E-02 -7.3225183990000E-01
   156  1.5500000000000E+00  1.3245215813000E-02 -6.8378040890000E-01
   157  1.5600000000000E+00  1.2523247012000E-02 -6.3628545980000E-01
   158  1.5700000000000E+00  1.1775318288000E-02 -5.8994557696000E-01
   159  1.5800000000000E+00  1.1011340357000E-02 -5.4491863612000E-01
   160  1.5900000000000E+00  1.0240882599000E-02 -5.0135504911000E-01
   161  1.6000000000000E+00  9.4717154313000E-03 -4.5937183337000E-01
   162  1.6100000000000E+00  8.7119250008000E-03 -4.1908983710000E-01
   163  1.6200000000000E+00  7.9672909811000E-03 -3.8058863486000E-01
   164  1.6300000000000E+00  7.2443810286000E-03 -3.4395935258000E-01
   165  1.6400000000000E+00  6.5471853284000E-03 -3.0924975009000E-01
   166  1.6500000000000E+00  5.8807592662000E-03 -2.7652257196000E-01
   167  1.6600000000000E+00  5.2475411315000E-03 -2.4580112215000E-01
   168  1.6700000000000E+00  4.6511284534000E-03 -2.1712350809000E-01
   169  1.6800000000000E+00  4.0926595632000E-03 -1.9049503976000E-01
   170  1.6900000000000E+00  3.5743963581000E-03 -1.6593996246000E-01
   171  1.7000000000000E+00  3.0963525118000E-03 -1.4343159281000E-01
   172  1.7100000000000E+00  2.6595311989000E-03 -1.2296965952000E-01
   173  1.7200000000000E+00  2.2630068135000E-03 -1.0448816800000E-01
   174  1.7300000000000E+00  1.9065955522000E-03 -8.7944791806000E-02
   175  1.7400000000000E+00  1.5886879219000E-03 -7.3248295748000E-02
   176  1.7500000000000E+00  1.3081011248000E-03 -6.0319992140000E-02
   177  1.7600000000000E+00  1.0627576584000E-03 -4.9052250608000E-02
   178  1.7700000000000E+00  8.5070824456000E-04 -3.9339276444000E-02
   179  1.7800000000000E+00  6.6958426956000E-04 -3.1063884038000E-02
   180  1.7900000000000E+00  5.1693322306000E-04 -2.4103720176000E-02
   181  1.8000000000000E+00  3.9022786475000E-04 -1.8337146406000E-02
   182  1.8100000000000E+00  2.8679555640000E-04 -1.3636686013000E-02
   183  1.8200000000000E+00  2.0403804710000E-04 -9.8795745926000E-03
   184  1.8300000000000E+00  1.3934731971000E-04 -6.9447586351000E-03
   185  1.8400000000000E+00  9.0106055122000E-05 -4.7102731052000E-03
   186  1.8500000000000E+00  5.4030662944000E-05 -3.0720074820000E-03
   187  1.8600000000000E+00  2.8520509754000E-05 -1.9101348211000E-03
   188  1.8700000000000E+00  1.1782622393000E-05 -1.1439052734000E-03
   189  1.8800000000000E+00  1.3845380364000E-06 -6.6240707282000E-04
   190  1.8900000000000E+00 -4.0515880770000E-06 -4.0392457760000E-04
   191  1.9000000000000E+00 -6.7912768026000E-06 -2.8845080901000E-04
   192  1.9100000000000E+00 -7.4174191105000E-06 -2.5125908717000E-04
   193  1.9200000000000E+00 -5.8376555488000E-06 -1.9816440445000E-04
   194  1.9300000000000E+00 -2.7347129826000E-06 -8.6353231825000E-05
   195  1.9400000000000E+00  9.7394397179000E-08  3.4417325946000E-06
   196  1.9500000000000E+00  4.5204416673000E-07  1.5974380333000E-05
   197  1.9600000000000E+00  1.1426720313000E-07  4.0379854376000E-06
   198  1.9700000000000E+00  0.0000000000000E+00  0.0000000000000E+00
   199  1.9800000000000E+00  0.0000000000000E+00  0.0000000000000E+00
   200  1.9900000000000E+00  0.0000000000000E+00  0.0000000000000E+00
   201  2.0000000000000E+00  0.0000000000000E+00  0.0000000000000E+00
   202  2.0100000000000E+00  0.0000000000000E+00  0.0000000000000E+00
   203  2.0200000000000E+00  0.0000000000000E+00  0.0000000000000E+00
   204  2.0300000000000E+00  0.0000000000000E+00  0.0000000000000E+00
   205  2.0400000000000E+00  0.0000000000000E+00  0.0000000000000E+00
   206  2.0500000000000E+00  0.0000000000000E+00  0.0000000000000E+00
   207  2.0600000000000E+00  0.0000000000000E+00  0.0000000000000E+00
   208  2.0700000000000E+00  0.0000000000000E+00  0.0000000000000E+00
   209  2.0800000000000E+00  0.0000000000000E+00  0.0000000000000E+00
   210  2.0900000000000E+00  0.0000000000000E+00  0.0000000000000E+00
   211  2.1000000000000E+00  0.0000000000000E+00  0.0000000000000E+00
   212  2.1100000000000E+00  0.0000000000000E+00  0.0000000000000E+00
   213  2.1200000000000E+00  0.0000000000000E+00  0.0000000000000E+00
   214  2.1300000000000E+00  0.0000000000000E+00  0.0000000000000E+00
   215  2.1400000000000E+00  0.0000000000000E+00  0.0000000000000E+00
   216  2.1500000000000E+00  0.0000000000000E+00  0.0000000000000E+00
   217  2.1600000000000E+00  0.0000000000000E+00  0.0000000000000E+00
   218  2.1700000000000E+00  0.0000000000000E+00  0.0000000000000E+00
   219  2.1800000000000E+00  0.0000000000000E+00  0.0000000000000E+00
   220  2.1900000000000E+00  0.0000000000000E+00  0.0000000000000E+00
   221  2.2000000000000E+00  0.0000000000000E+00  0.0000000000000E+00
   222  2.2100000000000E+00  0.0000000000000E+00  0.0000000000000E+00
   223  2.2200000000000E+00  0.0000000000000E+00  0.0000000000000E+00
   224  2.2300000000000E+00  0.0000000000000E+00  0.0000000000000E+00
   225  2.2400000000000E+00  0.0000000000000E+00  0.0000000000000E+00
   226  2.2500000000000E+00  0.0000000000000E+00  0.0000000000000E+00
   227  2.2600000000000E+00  0.0000000000000E+00  0.0000000000000E+00
   228  2.2700000000000E+00  0.0000000000000E+00  0.0000000000000E+00
   229  2.2800000000000E+00  0.0000000000000E+00  0.0000000000000E+00
   230  2.2900000000000E+00  0.0000000000000E+00  0.0000000000000E+00
   231  2.3000000000000E+00  0.0000000000000E+00  0.0000000000000E+00
   232  2.3100000000000E+00  0.0000000000000E+00  0.0000000000000E+00
   233  2.3200000000000E+00  0.0000000000000E+00  0.0000000000000E+00
   234  2.3300000000000E+00  0.0000000000000E+00  0.0000000000000E+00
   235  2.3400000000000E+00  0.0000000000000E+00  0.0000000000000E+00
   236  2.3500000000000E+00  0.0000000000000E+00  0.0000000000000E+00
   237  2.3600000000000E+00  0.0000000000000E+00  0.0000000000000E+00
   238  2.3700000000000E+00  0.0000000000000E+00  0.0000000000000E+00
   239  2.3800000000000E+00  0.0000000000000E+00  0.0000000000000E+00
   240  2.3900000000000E+00  0.0000000000000E+00  0.0000000000000E+00
   241  2.4000000000000E+00  0.0000000000000E+00  0.0000000000000E+00
   242  2.4100000000000E+00  0.0000000000000E+00  0.0000000000000E+00
   243  2.4200000000000E+00  0.0000000000000E+00  0.0000000000000E+00
   244  2.4300000000000E+00  0.0000000000000E+00  0.0000000000000E+00
   245  2.4400000000000E+00  0.0000000000000E+00  0.0000000000000E+00
   246  2.4500000000000E+00  0.0000000000000E+00  0.0000000000000E+00
   247  2.4600000000000E+00  0.0000000000000E+00  0.0000000000000E+00
   248  2.4700000000000E+00  0.0000000000000E+00  0.0000000000000E+00
   249  2.4800000000000E+00  0.0000000000000E+00  0.0000000000000E+00
   250  2.4900000000000E+00  0.0000000000000E+00  0.0000000000000E+00
   251  2.5000000000000E+00  0.0000000000000E+00  0.0000000000000E+00
   252  2.5100000000000E+00  0.0000000000000E+00  0.0000000000000E+00
   253  2.5200000000000E+00  0.0000000000000E+00  0.0000000000000E+00
   254  2.5300000000000E+00  0.0000000000000E+00  0.0000000000000E+00
   255  2.5400000000000E+00  0.0000000000000E+00  0.0000000000000E+00
   256  2.5500000000000E+00  0.0000000000000E+00  0.0000000000000E+00
   257  2.5600000000000E+00  0.0000000000000E+00  0.0000000000000E+00
   258  2.5700000000000E+00  0.0000000000000E+00  0.0000000000000E+00
   259  2.5800000000000E+00  0.0000000000000E+00  0.0000000000000E+00
   260  2.5900000000000E+00  0.0000000000000E+00  0.0000000000000E+00
   261  2.6000000000000E+00  0.0000000000000E+00  0.0000000000000E+00
   262  2.6100000000000E+00  0.0000000000000E+00  0.0000000000000E+00
   263  2.6200000000000E+00  0.0000000000000E+00  0.0000000000000E+00
   264  2.6300000000000E+00  0.0000000000000E+00  0.0000000000000E+00
   265  2.6400000000000E+00  0.0000000000000E+00  0.0000000000000E+00
   266  2.6500000000000E+00  0.0000000000000E+00  0.0000000000000E+00
   267  2.6600000000000E+00  0.0000000000000E+00  0.0000000000000E+00
   268  2.6700000000000E+00  0.0000000000000E+00  0.0000000000000E+00
   269  2.6800000000000E+00  0.0000000000000E+00  0.0000000000000E+00
   270  2.6900000000000E+00  0.0000000000000E+00  0.0000000000000E+00
   271  2.7000000000000E+00  0.0000000000000E+00  0.0000000000000E+00
   272  2.7100000000000E+00  0.0000000000000E+00  0.0000000000000E+00
   273  2.7200000000000E+00  0.0000000000000E+00  0.0000000000000E+00
   274  2.7300000000000E+00  0.0000000000000E+00  0.0000000000000E+00
   275  2.7400000000000E+00  0.0000000000000E+00  0.0000000000000E+00
   276  2.7500000000000E+00  0.0000000000000E+00  0.0000000000000E+00
   277  2.7600000000000E+00  0.0000000000000E+00  0.0000000000000E+00
   278  2.7700000000000E+00  0.0000000000000E+00  0.0000000000000E+00
   279  2.7800000000000E+00  0.0000000000000E+00  0.0000000000000E+00
   280  2.7900000000000E+00  0.0000000000000E+00  0.0000000000000E+00
   281  2.8000000000000E+00  0.0000000000000E+00  0.0000000000000E+00
   282  2.8100000000000E+00  0.0000000000000E+00  0.0000000000000E+00
   283  2.8200000000000E+00  0.0000000000000E+00  0.0000000000000E+00
   284  2.8300000000000E+00  0.0000000000000E+00  0.0000000000000E+00
   285  2.8400000000000E+00  0.0000000000000E+00  0.0000000000000E+00
   286  2.8500000000000E+00  0.0000000000000E+00  0.0000000000000E+00
   287  2.8600000000000E+00  0.0000000000000E+00  0.0000000000000E+00
   288  2.8700000000000E+00  0.0000000000000E+00  0.0000000000000E+00
   289  2.8800000000000E+00  0.0000000000000E+00  0.0000000000000E+00
   290  2.8900000000000E+00  0.0000000000000E+00  0.0000000000000E+00
   291  2.9000000000000E+00  0.0000000000000E+00  0.0000000000000E+00
   292  2.9100000000000E+00  0.0000000000000E+00  0.0000000000000E+00
   293  2.9200000000000E+00  0.0000000000000E+00  0.0000000000000E+00
   294  2.9300000000000E+00  0.0000000000000E+00  0.0000000000000E+00
   295  2.9400000000000E+00  0.0000000000000E+00  0.0000000000000E+00
   296  2.9500000000000E+00  0.0000000000000E+00  0.0000000000000E+00
   297  2.9600000000000E+00  0.0000000000000E+00  0.0000000000000E+00
   298  2.9700000000000E+00  0.0000000000000E+00  0.0000000000000E+00
   299  2.9800000000000E+00  0.0000000000000E+00  0.0000000000000E+00
   300  2.9900000000000E+00  0.0000000000000E+00  0.0000000000000E+00
   301  3.0000000000000E+00  0.0000000000000E+00  0.0000000000000E+00
   302  3.0100000000000E+00  0.0000000000000E+00  0.0000000000000E+00
   303  3.0200000000000E+00  0.0000000000000E+00  0.0000000000000E+00
   304  3.0300000000000E+00  0.0000000000000E+00  0.0000000000000E+00
   305  3.0400000000000E+00  0.0000000000000E+00  0.0000000000000E+00
   306  3.0500000000000E+00  0.0000000000000E+00  0.0000000000000E+00
   307  3.0600000000000E+00  0.0000000000000E+00  0.0000000000000E+00
   308  3.0700000000000E+00  0.0000000000000E+00  0.0000000000000E+00
   309  3.0800000000000E+00  0.0000000000000E+00  0.0000000000000E+00
   310  3.0900000000000E+00  0.0000000000000E+00  0.0000000000000E+00
   311  3.1000000000000E+00  0.0000000000000E+00  0.0000000000000E+00
   312  3.1100000000000E+00  0.0000000000000E+00  0.0000000000000E+00
   313  3.1200000000000E+00  0.0000000000000E+00  0.0000000000000E+00
   314  3.1300000000000E+00  0.0000000000000E+00  0.0000000000000E+00
   315  3.1400000000000E+00  0.0000000000000E+00  0.0000000000000E+00
   316  3.1500000000000E+00  0.0000000000000E+00  0.0000000000000E+00
   317  3.1600000000000E+00  0.0000000000000E+00  0.0000000000000E+00
   318  3.1700000000000E+00  0.0000000000000E+00  0.0000000000000E+00
   319  3.1800000000000E+00  0.0000000000000E+00  0.0000000000000E+00
   320  3.1900000000000E+00  0.0000000000000E+00  0.0000000000000E+00
   321  3.2000000000000E+00  0.0000000000000E+00  0.0000000000000E+00
   322  3.2100000000000E+00  0.0000000000000E+00  0.0000000000000E+00
   323  3.2200000000000E+00  0.0000000000000E+00  0.0000000000000E+00
   324  3.2300000000000E+00  0.0000000000000E+00  0.0000000000000E+00
   325  3.2400000000000E+00  0.0000000000000E+00  0.0000000000000E+00
   326  3.2500000000000E+00  0.0000000000000E+00  0.0000000000000E+00
   327  3.2600000000000E+00  0.0000000000000E+00  0.0000000000000E+00
   328  3.2700000000000E+00  0.0000000000000E+00  0.0000000000000E+00
   329  3.2800000000000E+00  0.0000000000000E+00  0.0000000000000E+00
   330  3.2900000000000E+00  0.0000000000000E+00  0.0000000000000E+00
   331  3.3000000000000E+00  0.0000000000000E+00  0.0000000000000E+00
   332  3.3100000000000E+00  0.0000000000000E+00  0.0000000000000E+00
   333  3.3200000000000E+00  0.0000000000000E+00  0.0000000000000E+00
   334  3.3300000000000E+00  0.0000000000000E+00  0.0000000000000E+00
   335  3.3400000000000E+00  0.0000000000000E+00  0.0000000000000E+00
   336  3.3500000000000E+00  0.0000000000000E+00  0.0000000000000E+00
   337  3.3600000000000E+00  0.0000000000000E+00  0.0000000000000E+00
   338  3.3700000000000E+00  0.0000000000000E+00  0.0000000000000E+00
   339  3.3800000000000E+00  0.0000000000000E+00  0.0000000000000E+00
   340  3.3900000000000E+00  0.0000000000000E+00  0.0000000000000E+00
   341  3.4000000000000E+00  0.0000000000000E+00  0.0000000000000E+00
   342  3.4100000000000E+00  0.0000000000000E+00  0.0000000000000E+00
   343  3.4200000000000E+00  0.0000000000000E+00  0.0000000000000E+00
   344  3.4300000000000E+00  0.0000000000000E+00  0.0000000000000E+00
   345  3.4400000000000E+00  0.0000000000000E+00  0.0000000000000E+00
   346  3.4500000000000E+00  0.0000000000000E+00  0.0000000000000E+00
   347  3.4600000000000E+00  0.0000000000000E+00  0.0000000000000E+00
   348  3.4700000000000E+00  0.0000000000000E+00  0.0000000000000E+00
   349  3.4800000000000E+00  0.0000000000000E+00  0.0000000000000E+00
   350  3.4900000000000E+00  0.0000000000000E+00  0.0000000000000E+00
   351  3.5000000000000E+00  0.0000000000000E+00  0.0000000000000E+00
   352  3.5100000000000E+00  0.0000000000000E+00  0.0000000000000E+00
   353  3.5200000000000E+00  0.0000000000000E+00  0.0000000000000E+00
   354  3.5300000000000E+00  0.0000000000000E+00  0.0000000000000E+00
   355  3.5400000000000E+00  0.0000000000000E+00  0.0000000000000E+00
   356  3.5500000000000E+00  0.0000000000000E+00  0.0000000000000E+00
   357  3.5600000000000E+00  0.0000000000000E+00  0.0000000000000E+00
   358  3.5700000000000E+00  0.0000000000000E+00  0.0000000000000E+00
   359  3.5800000000000E+00  0.0000000000000E+00  0.0000000000000E+00
   360  3.5900000000000E+00  0.0000000000000E+00  0.0000000000000E+00
   361  3.6000000000000E+00  0.0000000000000E+00  0.0000000000000E+00
   362  3.6100000000000E+00  0.0000000000000E+00  0.0000000000000E+00
   363  3.6200000000000E+00  0.0000000000000E+00  0.0000000000000E+00
   364  3.6300000000000E+00  0.0000000000000E+00  0.0000000000000E+00
   365  3.6400000000000E+00  0.0000000000000E+00  0.0000000000000E+00
   366  3.6500000000000E+00  0.0000000000000E+00  0.0000000000000E+00
   367  3.6600000000000E+00  0.0000000000000E+00  0.0000000000000E+00
   368  3.6700000000000E+00  0.0000000000000E+00  0.0000000000000E+00
   369  3.6800000000000E+00  0.0000000000000E+00  0.0000000000000E+00
   370  3.6900000000000E+00  0.0000000000000E+00  0.0000000000000E+00
   371  3.7000000000000E+00  0.0000000000000E+00  0.0000000000000E+00
   372  3.7100000000000E+00  0.0000000000000E+00  0.0000000000000E+00
   373  3.7200000000000E+00  0.0000000000000E+00  0.0000000000000E+00
   374  3.7300000000000E+00  0.0000000000000E+00  0.0000000000000E+00
   375  3.7400000000000E+00  0.0000000000000E+00  0.0000000000000E+00
   376  3.7500000000000E+00  0.0000000000000E+00  0.0000000000000E+00
   377  3.7600000000000E+00  0.0000000000000E+00  0.0000000000000E+00
   378  3.7700000000000E+00  0.0000000000000E+00  0.0000000000000E+00
   379  3.7800000000000E+00  0.0000000000000E+00  0.0000000000000E+00
   380  3.7900000000000E+00  0.0000000000000E+00  0.0000000000000E+00
   381  3.8000000000000E+00  0.0000000000000E+00  0.0000000000000E+00
   382  3.8100000000000E+00  0.0000000000000E+00  0.0000000000000E+00
   383  3.8200000000000E+00  0.0000000000000E+00  0.0000000000000E+00
   384  3.8300000000000E+00  0.0000000000000E+00  0.0000000000000E+00
   385  3.8400000000000E+00  0.0000000000000E+00  0.0000000000000E+00
   386  3.8500000000000E+00  0.0000000000000E+00  0.0000000000000E+00
   387  3.8600000000000E+00  0.0000000000000E+00  0.0000000000000E+00
   388  3.8700000000000E+00  0.0000000000000E+00  0.0000000000000E+00
   389  3.8800000000000E+00  0.0000000000000E+00  0.0000000000000E+00
   390  3.8900000000000E+00  0.0000000000000E+00  0.0000000000000E+00
   391  3.9000000000000E+00  0.0000000000000E+00  0.0000000000000E+00
   392  3.9100000000000E+00  0.0000000000000E+00  0.0000000000000E+00
   393  3.9200000000000E+00  0.0000000000000E+00  0.0000000000000E+00
   394  3.9300000000000E+00  0.0000000000000E+00  0.0000000000000E+00
   395  3.9400000000000E+00  0.0000000000000E+00  0.0000000000000E+00
   396  3.9500000000000E+00  0.0000000000000E+00  0.0000000000000E+00
   397  3.9600000000000E+00  0.0000000000000E+00  0.0000000000000E+00
   398  3.9700000000000E+00  0.0000000000000E+00  0.0000000000000E+00
   399  3.9800000000000E+00  0.0000000000000E+00  0.0000000000000E+00
   400  3.9900000000000E+00  0.0000000000000E+00  0.0000000000000E+00
   401  4.0000000000000E+00  0.0000000000000E+00  0.0000000000000E+00
   402  4.0100000000000E+00  0.0000000000000E+00  0.0000000000000E+00
   403  4.0200000000000E+00  0.0000000000000E+00  0.0000000000000E+00
   404  4.0300000000000E+00  0.0000000000000E+00  0.0000000000000E+00
   405  4.0400000000000E+00  0.0000000000000E+00  0.0000000000000E+00
   406  4.0500000000000E+00  0.0000000000000E+00  0.0000000000000E+00
   407  4.0600000000000E+00  0.0000000000000E+00  0.0000000000000E+00
   408  4.0700000000000E+00  0.0000000000000E+00  0.0000000000000E+00
   409  4.0800000000000E+00  0.0000000000000E+00  0.0000000000000E+00
   410  4.0900000000000E+00  0.0000000000000E+00  0.0000000000000E+00
   411  4.1000000000000E+00  0.0000000000000E+00  0.0000000000000E+00
   412  4.1100000000000E+00  0.0000000000000E+00  0.0000000000000E+00
   413  4.1200000000000E+00  0.0000000000000E+00  0.0000000000000E+00
   414  4.1300000000000E+00  0.0000000000000E+00  0.0000000000000E+00
   415  4.1400000000000E+00  0.0000000000000E+00  0.0000000000000E+00
   416  4.1500000000000E+00  0.0000000000000E+00  0.0000000000000E+00
   417  4.1600000000000E+00  0.0000000000000E+00  0.0000000000000E+00
   418  4.1700000000000E+00  0.0000000000000E+00  0.0000000000000E+00
   419  4.1800000000000E+00  0.0000000000000E+00  0.0000000000000E+00
   420  4.1900000000000E+00  0.0000000000000E+00  0.0000000000000E+00
   421  4.2000000000000E+00  0.0000000000000E+00  0.0000000000000E+00
   422  4.2100000000000E+00  0.0000000000000E+00  0.0000000000000E+00
   423  4.2200000000000E+00  0.0000000000000E+00  0.0000000000000E+00