Zn   ONCVPSP-2.1.1   r_core=    1.96594 2.06202 2.06202
    30.0000   20.0000   150105   zatom,zion,pspd
    8   11   2   4   600   0   pspcod,pspxc,lmax,lloc,mmax,r2well
    5.99000000   0.00000000   0.00000000   rchrg fchrg qchrg
    2   2   2   0   0   nproj
    1   1   extension_switch
       0                        -3.8323343643000E+00 -3.4399783763500E-01
     1  0.0000000000000E+00  0.0000000000000E+00  0.0000000000000E+00
     2  1.0000000000000E-02 -4.3829663083000E-02  6.2455675639000E-02
     3  2.0000000000000E-02 -8.7606208644000E-02  1.2469189998000E-01
     4  3.0000000000000E-02 -1.3127664085000E-01  1.8649012015000E-01
     5  4.0000000000000E-02 -1.7478820668000E-01  2.4763357566000E-01
     6  5.0000000000000E-02 -2.1808851603000E-01  3.0790818339000E-01
     7  6.0000000000000E-02 -2.6112566007000E-01  3.6710340927000E-01
     8  7.0000000000000E-02 -3.0384832757000E-01  4.2501312222000E-01
     9  8.0000000000000E-02 -3.4620591852000E-01  4.8143642622000E-01
    10  9.0000000000000E-02 -3.8814865458000E-01  5.3617846637000E-01
    11  1.0000000000000E-01 -4.2962768597000E-01  5.8905120495000E-01
    12  1.1000000000000E-01 -4.7059519419000E-01  6.3987416372000E-01
    13  1.2000000000000E-01 -5.1100449036000E-01  6.8847512890000E-01
    14  1.3000000000000E-01 -5.5081010862000E-01  7.3469081546000E-01
    15  1.4000000000000E-01 -5.8996789428000E-01  7.7836748740000E-01
    16  1.5000000000000E-01 -6.2843508643000E-01  8.1936153141000E-01
    17  1.6000000000000E-01 -6.6617039471000E-01  8.5753998103000E-01
    18  1.7000000000000E-01 -7.0313406995000E-01  8.9278098908000E-01
    19  1.8000000000000E-01 -7.3928796851000E-01  9.2497424624000E-01
    20  1.9000000000000E-01 -7.7459561014000E-01  9.5402134423000E-01
    21  2.0000000000000E-01 -8.0902222918000E-01  9.7983608136000E-01
    22  2.1000000000000E-01 -8.4253481920000E-01  1.0023447110000E+00
    23  2.2000000000000E-01 -8.7510217072000E-01  1.0214861300000E+00
    24  2.3000000000000E-01 -9.0669490234000E-01  1.0372120080000E+00
    25  2.4000000000000E-01 -9.3728548499000E-01  1.0494868575000E+00
    26  2.5000000000000E-01 -9.6684825984000E-01  1.0582880445000E+00
    27  2.6000000000000E-01 -9.9535944935000E-01  1.0636057390000E+00
    28  2.7000000000000E-01 -1.0227971623000E+00  1.0654428096000E+00
    29  2.8000000000000E-01 -1.0491413925000E+00  1.0638146588000E+00
    30  2.9000000000000E-01 -1.0743740114000E+00  1.0587490044000E+00
    31  3.0000000000000E-01 -1.0984787559000E+00  1.0502856062000E+00
    32  3.1000000000000E-01 -1.1214412092000E+00  1.0384759412000E+00
    33  3.2000000000000E-01 -1.1432487785000E+00  1.0233828298000E+00
    34  3.3000000000000E-01 -1.1638906666000E+00  1.0050800136000E+00
    35  3.4000000000000E-01 -1.1833578398000E+00  9.8365168878000E-01
    36  3.5000000000000E-01 -1.2016429919000E+00  9.5919200394000E-01
    37  3.6000000000000E-01 -1.2187405042000E+00  9.3180450703000E-01
    38  3.7000000000000E-01 -1.2346464030000E+00  9.0160157078000E-01
    39  3.8000000000000E-01 -1.2493583147000E+00  8.6870378770000E-01
    40  3.9000000000000E-01 -1.2628754166000E+00  8.3323931475000E-01
    41  4.0000000000000E-01 -1.2751983889000E+00  7.9534322410000E-01
    42  4.1000000000000E-01 -1.2863293633000E+00  7.5515681728000E-01
    43  4.2000000000000E-01 -1.2962718711000E+00  7.1282692571000E-01
    44  4.3000000000000E-01 -1.3050307910000E+00  6.6850519926000E-01
    45  4.4000000000000E-01 -1.3126122964000E+00  6.2234738652000E-01
    46  4.5000000000000E-01 -1.3190238034000E+00  5.7451261065000E-01
    47  4.6000000000000E-01 -1.3242739191000E+00  5.2516264471000E-01
    48  4.7000000000000E-01 -1.3283723910000E+00  4.7446119080000E-01
    49  4.8000000000000E-01 -1.3313300593000E+00  4.2257318824000E-01
    50  4.9000000000000E-01 -1.3331588057000E+00  3.6966405603000E-01
    51  5.0000000000000E-01 -1.3338715094000E+00  3.1589903833000E-01
    52  5.1000000000000E-01 -1.3334820058000E+00  2.6144255437000E-01
    53  5.2000000000000E-01 -1.3320050436000E+00  2.0645753372000E-01
    54  5.3000000000000E-01 -1.3294562410000E+00  1.5110471224000E-01
    55  5.4000000000000E-01 -1.3258520612000E+00  9.5542204566000E-02
    56  5.5000000000000E-01 -1.3212097651000E+00  3.9924726356000E-02
    57  5.6000000000000E-01 -1.3155473927000E+00 -1.5596767679000E-02
    58  5.7000000000000E-01 -1.3088837270000E+00 -7.0875709807000E-02
    59  5.8000000000000E-01 -1.3012382753000E+00 -1.2577030286000E-01
    60  5.9000000000000E-01 -1.2926312401000E+00 -1.8014405456000E-01
    61  6.0000000000000E-01 -1.2830835110000E+00 -2.3386599326000E-01
    62  6.1000000000000E-01 -1.2726166305000E+00 -2.8681130619000E-01
    63  6.2000000000000E-01 -1.2612528011000E+00 -3.3886129270000E-01
    64  6.3000000000000E-01 -1.2490148537000E+00 -3.8990396599000E-01
    65  6.4000000000000E-01 -1.2359262468000E+00 -4.3983412651000E-01
    66  6.5000000000000E-01 -1.2220110644000E+00 -4.8855344524000E-01
    67  6.6000000000000E-01 -1.2072939941000E+00 -5.3597086469000E-01
    68  6.7000000000000E-01 -1.1918003311000E+00 -5.8200254968000E-01
    69  6.8000000000000E-01 -1.1755559742000E+00 -6.2657193518000E-01
    70  6.9000000000000E-01 -1.1585874247000E+00 -6.6960971544000E-01
    71  7.0000000000000E-01 -1.1409217679000E+00 -7.1105407014000E-01
    72  7.1000000000000E-01 -1.1225866846000E+00 -7.5085036971000E-01
    73  7.2000000000000E-01 -1.1036104417000E+00 -7.8895116936000E-01
    74  7.3000000000000E-01 -1.0840218876000E+00 -8.2531609441000E-01
    75  7.4000000000000E-01 -1.0638504476000E+00 -8.5991167002000E-01
    76  7.5000000000000E-01 -1.0431261115000E+00 -8.9271121076000E-01
    77  7.6000000000000E-01 -1.0218794267000E+00 -9.2369456790000E-01
    78  7.7000000000000E-01 -1.0001414882000E+00 -9.5284788788000E-01
    79  7.8000000000000E-01 -9.7794392317000E-01 -9.8016337528000E-01
    80  7.9000000000000E-01 -9.5531887382000E-01 -1.0056390217000E+00
    81  8.0000000000000E-01 -9.3229897746000E-01 -1.0292783170000E+00
    82  8.1000000000000E-01 -9.0891734298000E-01 -1.0510899467000E+00
    83  8.2000000000000E-01 -8.8520752385000E-01 -1.0710874758000E+00
    84  8.3000000000000E-01 -8.6120348734000E-01 -1.0892890252000E+00
    85  8.4000000000000E-01 -8.3693957983000E-01 -1.1057169397000E+00
    86  8.5000000000000E-01 -8.1245048799000E-01 -1.1203974529000E+00
    87  8.6000000000000E-01 -7.8777119587000E-01 -1.1333603499000E+00
    88  8.7000000000000E-01 -7.6293693780000E-01 -1.1446386306000E+00
    89  8.8000000000000E-01 -7.3798314697000E-01 -1.1542681763000E+00
    90  8.9000000000000E-01 -7.1294539993000E-01 -1.1622874212000E+00
    91  9.0000000000000E-01 -6.8785935690000E-01 -1.1687370314000E+00
    92  9.1000000000000E-01 -6.6276069818000E-01 -1.1736595928000E+00
    93  9.2000000000000E-01 -6.3768505659000E-01 -1.1770993104000E+00
    94  9.3000000000000E-01 -6.1266794650000E-01 -1.1791017201000E+00
    95  9.4000000000000E-01 -5.8774468938000E-01 -1.1797134149000E+00
    96  9.5000000000000E-01 -5.6295033645000E-01 -1.1789817866000E+00
    97  9.6000000000000E-01 -5.3831961102000E-01 -1.1769548646000E+00
    98  9.7000000000000E-01 -5.1388677316000E-01 -1.1736808920000E+00
    99  9.8000000000000E-01 -4.8968556366000E-01 -1.1692082349000E+00
   100  9.9000000000000E-01 -4.6574912480000E-01 -1.1635852171000E+00
   101  1.0000000000000E+00 -4.4210990617000E-01 -1.1568599262000E+00
   102  1.0100000000000E+00 -4.1879957718000E-01 -1.1490800643000E+00
   103  1.0200000000000E+00 -3.9584894340000E-01 -1.1402928288000E+00
   104  1.0300000000000E+00 -3.7328792701000E-01 -1.1305449738000E+00
   105  1.0400000000000E+00 -3.5114525967000E-01 -1.1198821136000E+00
   106  1.0500000000000E+00 -3.2944860372000E-01 -1.1083492404000E+00
   107  1.0600000000000E+00 -3.0822440911000E-01 -1.0959904867000E+00
   108  1.0700000000000E+00 -2.8749783553000E-01 -1.0828490860000E+00
   109  1.0800000000000E+00 -2.6729280588000E-01 -1.0689676055000E+00
   110  1.0900000000000E+00 -2.4763153335000E-01 -1.0543870881000E+00
   111  1.1000000000000E+00 -2.2853481845000E-01 -1.0391478723000E+00
   112  1.1100000000000E+00 -2.1002188805000E-01 -1.0232893737000E+00
   113  1.1200000000000E+00 -1.9211045789000E-01 -1.0068502996000E+00
   114  1.1300000000000E+00 -1.7481635291000E-01 -9.8986810629000E-01
   115  1.1400000000000E+00 -1.5815362610000E-01 -9.7237938345000E-01
   116  1.1500000000000E+00 -1.4213461222000E-01 -9.5442003096000E-01
   117  1.1600000000000E+00 -1.2677001528000E-01 -9.3602544040000E-01
   118  1.1700000000000E+00 -1.1206833411000E-01 -9.1722977400000E-01
   119  1.1800000000000E+00 -9.8036280125000E-02 -8.9806668346000E-01
   120  1.1900000000000E+00 -8.4678812947000E-02 -8.7856938318000E-01
   121  1.2000000000000E+00 -7.1999018363000E-02 -8.5877053199000E-01
   122  1.2100000000000E+00 -5.9997779041000E-02 -8.3870190891000E-01
   123  1.2200000000000E+00 -4.8674299027000E-02 -8.1839508130000E-01
   124  1.2300000000000E+00 -3.8026166056000E-02 -7.9788148007000E-01
   125  1.2400000000000E+00 -2.8048600672000E-02 -7.7719153080000E-01
   126  1.2500000000000E+00 -1.8735297075000E-02 -7.5635561881000E-01
   127  1.2600000000000E+00 -1.0078398048000E-02 -7.3540407326000E-01
   128  1.2700000000000E+00 -2.0679194900000E-03 -7.1436638894000E-01
   129  1.2800000000000E+00  5.3075741631000E-03 -6.9327196038000E-01
   130  1.2900000000000E+00  1.2060923675000E-02 -6.7215021963000E-01
   131  1.3000000000000E+00  1.8206827757000E-02 -6.5102970807000E-01
   132  1.3100000000000E+00  2.3761199180000E-02 -6.2993890933000E-01
   133  1.3200000000000E+00  2.8741264682000E-02 -6.0890627116000E-01
   134  1.3300000000000E+00  3.3165658596000E-02 -5.8795920331000E-01
   135  1.3400000000000E+00  3.7054021256000E-02 -5.6712516668000E-01
   136  1.3500000000000E+00  4.0427144555000E-02 -5.4643116419000E-01
   137  1.3600000000000E+00  4.3306657748000E-02 -5.2590320338000E-01
   138  1.3700000000000E+00  4.5715151979000E-02 -5.0556739355000E-01
   139  1.3800000000000E+00  4.7675837047000E-02 -4.8544860688000E-01
   140  1.3900000000000E+00  4.9212463037000E-02 -4.6557109743000E-01
   141  1.4000000000000E+00  5.0349611897000E-02 -4.4595890279000E-01
   142  1.4100000000000E+00  5.1111660289000E-02 -4.2663413662000E-01
   143  1.4200000000000E+00  5.1523830159000E-02 -4.0761904439000E-01
   144  1.4300000000000E+00  5.1611075492000E-02 -3.8893412498000E-01
   145  1.4400000000000E+00  5.1398371666000E-02 -3.7059891332000E-01
   146  1.4500000000000E+00  5.0911132963000E-02 -3.5263240585000E-01
   147  1.4600000000000E+00  5.0173530792000E-02 -3.3505112919000E-01
   148  1.4700000000000E+00  4.9210786744000E-02 -3.1787195264000E-01
   149  1.4800000000000E+00  4.8046294957000E-02 -3.0110878469000E-01
   150  1.4900000000000E+00  4.6703972061000E-02 -2.8477536942000E-01
   151  1.5000000000000E+00  4.5206675814000E-02 -2.6888350418000E-01
   152  1.5100000000000E+00  4.3576352463000E-02 -2.5344346587000E-01
   153  1.5200000000000E+00  4.1835057648000E-02 -2.3846483570000E-01
   154  1.5300000000000E+00  4.0002393738000E-02 -2.2395448332000E-01
   155  1.5400000000000E+00  3.8099312118000E-02 -2.0991967181000E-01
   156  1.5500000000000E+00  3.6143045687000E-02 -1.9636426069000E-01
   157  1.5600000000000E+00  3.4152489458000E-02 -1.8329273344000E-01
   158  1.5700000000000E+00  3.2143047922000E-02 -1.7070674437000E-01
   159  1.5800000000000E+00  3.0130984161000E-02 -1.5860804330000E-01
   160  1.5900000000000E+00  2.8129875450000E-02 -1.4699644380000E-01
   161  1.6000000000000E+00  2.6153211696000E-02 -1.3587147559000E-01
   162  1.6100000000000E+00  2.4212613424000E-02 -1.2523145978000E-01
   163  1.6200000000000E+00  2.2318817829000E-02 -1.1507443417000E-01
   164  1.6300000000000E+00  2.0481388329000E-02 -1.0539769837000E-01
   165  1.6400000000000E+00  1.8708426496000E-02 -9.6198672310000E-02
   166  1.6500000000000E+00  1.7007382180000E-02 -8.7474253900000E-02
   167  1.6600000000000E+00  1.5383916579000E-02 -7.9222227144000E-02
   168  1.6700000000000E+00  1.3843368242000E-02 -7.1440031093000E-02
   169  1.6800000000000E+00  1.2389205751000E-02 -6.4126543555000E-02
   170  1.6900000000000E+00  1.1024742958000E-02 -5.7281796881000E-02
   171  1.7000000000000E+00  9.7514710809000E-03 -5.0903194040000E-02
   172  1.7100000000000E+00  8.5706947148000E-03 -4.4989049334000E-02
   173  1.7200000000000E+00  7.4821443257000E-03 -3.9532080366000E-02
   174  1.7300000000000E+00  6.4851713980000E-03 -3.4523739882000E-02
   175  1.7400000000000E+00  5.5780282208000E-03 -2.9951967516000E-02
   176  1.7500000000000E+00  4.7583744913000E-03 -2.5802664278000E-02
   177  1.7600000000000E+00  4.0232716793000E-03 -2.2059876297000E-02
   178  1.7700000000000E+00  3.3690199571000E-03 -1.8705220676000E-02
   179  1.7800000000000E+00  2.7917439237000E-03 -1.5719690025000E-02
   180  1.7900000000000E+00  2.2867838770000E-03 -1.3081978870000E-02
   181  1.8000000000000E+00  1.8495340415000E-03 -1.0770697469000E-02
   182  1.8100000000000E+00  1.4748288676000E-03 -8.7631209445000E-03
   183  1.8200000000000E+00  1.1574899264000E-03 -7.0359853432000E-03
   184  1.8300000000000E+00  8.9232197337000E-04 -5.5666811021000E-03
   185  1.8400000000000E+00  6.7371057347000E-04 -4.3305290503000E-03
   186  1.8500000000000E+00  4.9677666645000E-04 -3.3060474986000E-03
   187  1.8600000000000E+00  3.5590725451000E-04 -2.4687410475000E-03
   188  1.8700000000000E+00  2.4652886090000E-04 -1.7979999085000E-03
   189  1.8800000000000E+00  1.6355546360000E-04 -1.2712537093000E-03
   190  1.8900000000000E+00  1.0266050758000E-04 -8.6854306908000E-04
   191  1.9000000000000E+00  5.9768605972000E-05 -5.7073908028000E-04
   192  1.9100000000000E+00  3.0724848900000E-05 -3.5827950041000E-04
   193  1.9200000000000E+00  1.2836021923000E-05 -2.1660119848000E-04
   194  1.9300000000000E+00  2.1005272048000E-06 -1.2649156335000E-04
   195  1.9400000000000E+00 -2.8865173735000E-06 -7.7511912944000E-05
   196  1.9500000000000E+00 -5.3134858685000E-06 -5.5010779821000E-05
   197  1.9600000000000E+00 -5.7339357995000E-06 -4.7519537815000E-05
   198  1.9700000000000E+00 -4.4272513384000E-06 -3.7422448698000E-05
   199  1.9800000000000E+00 -2.1560872272000E-06 -1.6795609519000E-05
   200  1.9900000000000E+00  3.3831054113000E-08  2.9927566686000E-07
   201  2.0000000000000E+00  3.4426855878000E-07  3.0454623779000E-06
   202  2.0100000000000E+00  1.2614858526000E-07  1.1159333626000E-06
   203  2.0200000000000E+00  0.0000000000000E+00  0.0000000000000E+00
   204  2.0300000000000E+00  0.0000000000000E+00  0.0000000000000E+00
   205  2.0400000000000E+00  0.0000000000000E+00  0.0000000000000E+00
   206  2.0500000000000E+00  0.0000000000000E+00  0.0000000000000E+00
   207  2.0600000000000E+00  0.0000000000000E+00  0.0000000000000E+00
   208  2.0700000000000E+00  0.0000000000000E+00  0.0000000000000E+00
   209  2.0800000000000E+00  0.0000000000000E+00  0.0000000000000E+00
   210  2.0900000000000E+00  0.0000000000000E+00  0.0000000000000E+00
   211  2.1000000000000E+00  0.0000000000000E+00  0.0000000000000E+00
   212  2.1100000000000E+00  0.0000000000000E+00  0.0000000000000E+00
   213  2.1200000000000E+00  0.0000000000000E+00  0.0000000000000E+00
   214  2.1300000000000E+00  0.0000000000000E+00  0.0000000000000E+00
   215  2.1400000000000E+00  0.0000000000000E+00  0.0000000000000E+00
   216  2.1500000000000E+00  0.0000000000000E+00  0.0000000000000E+00
   217  2.1600000000000E+00  0.0000000000000E+00  0.0000000000000E+00
   218  2.1700000000000E+00  0.0000000000000E+00  0.0000000000000E+00
   219  2.1800000000000E+00  0.0000000000000E+00  0.0000000000000E+00
   220  2.1900000000000E+00  0.0000000000000E+00  0.0000000000000E+00
   221  2.2000000000000E+00  0.0000000000000E+00  0.0000000000000E+00
   222  2.2100000000000E+00  0.0000000000000E+00  0.0000000000000E+00
   223  2.2200000000000E+00  0.0000000000000E+00  0.0000000000000E+00
   224  2.2300000000000E+00  0.0000000000000E+00  0.0000000000000E+00
   225  2.2400000000000E+00  0.0000000000000E+00  0.0000000000000E+00
   226  2.2500000000000E+00  0.0000000000000E+00  0.0000000000000E+00
   227  2.2600000000000E+00  0.0000000000000E+00  0.0000000000000E+00
   228  2.2700000000000E+00  0.0000000000000E+00  0.0000000000000E+00
   229  2.2800000000000E+00  0.0000000000000E+00  0.0000000000000E+00
   230  2.2900000000000E+00  0.0000000000000E+00  0.0000000000000E+00
   231  2.3000000000000E+00  0.0000000000000E+00  0.0000000000000E+00
   232  2.3100000000000E+00  0.0000000000000E+00  0.0000000000000E+00
   233  2.3200000000000E+00  0.0000000000000E+00  0.0000000000000E+00
   234  2.3300000000000E+00  0.0000000000000E+00  0.0000000000000E+00
   235  2.3400000000000E+00  0.0000000000000E+00  0.0000000000000E+00
   236  2.3500000000000E+00  0.0000000000000E+00  0.0000000000000E+00
   237  2.3600000000000E+00  0.0000000000000E+00  0.0000000000000E+00
   238  2.3700000000000E+00  0.0000000000000E+00  0.0000000000000E+00
   239  2.3800000000000E+00  0.0000000000000E+00  0.0000000000000E+00
   240  2.3900000000000E+00  0.0000000000000E+00  0.0000000000000E+00
   241  2.4000000000000E+00  0.0000000000000E+00  0.0000000000000E+00
   242  2.4100000000000E+00  0.0000000000000E+00  0.0000000000000E+00
   243  2.4200000000000E+00  0.0000000000000E+00  0.0000000000000E+00
   244  2.4300000000000E+00  0.0000000000000E+00  0.0000000000000E+00
   245  2.4400000000000E+00  0.0000000000000E+00  0.0000000000000E+00
   246  2.4500000000000E+00  0.0000000000000E+00  0.0000000000000E+00
   247  2.4600000000000E+00  0.0000000000000E+00  0.0000000000000E+00
   248  2.4700000000000E+00  0.0000000000000E+00  0.0000000000000E+00
   249  2.4800000000000E+00  0.0000000000000E+00  0.0000000000000E+00
   250  2.4900000000000E+00  0.0000000000000E+00  0.0000000000000E+00
   251  2.5000000000000E+00  0.0000000000000E+00  0.0000000000000E+00
   252  2.5100000000000E+00  0.0000000000000E+00  0.0000000000000E+00
   253  2.5200000000000E+00  0.0000000000000E+00  0.0000000000000E+00
   254  2.5300000000000E+00  0.0000000000000E+00  0.0000000000000E+00
   255  2.5400000000000E+00  0.0000000000000E+00  0.0000000000000E+00
   256  2.5500000000000E+00  0.0000000000000E+00  0.0000000000000E+00
   257  2.5600000000000E+00  0.0000000000000E+00  0.0000000000000E+00
   258  2.5700000000000E+00  0.0000000000000E+00  0.0000000000000E+00
   259  2.5800000000000E+00  0.0000000000000E+00  0.0000000000000E+00
   260  2.5900000000000E+00  0.0000000000000E+00  0.0000000000000E+00
   261  2.6000000000000E+00  0.0000000000000E+00  0.0000000000000E+00
   262  2.6100000000000E+00  0.0000000000000E+00  0.0000000000000E+00
   263  2.6200000000000E+00  0.0000000000000E+00  0.0000000000000E+00
   264  2.6300000000000E+00  0.0000000000000E+00  0.0000000000000E+00
   265  2.6400000000000E+00  0.0000000000000E+00  0.0000000000000E+00
   266  2.6500000000000E+00  0.0000000000000E+00  0.0000000000000E+00
   267  2.6600000000000E+00  0.0000000000000E+00  0.0000000000000E+00
   268  2.6700000000000E+00  0.0000000000000E+00  0.0000000000000E+00
   269  2.6800000000000E+00  0.0000000000000E+00  0.0000000000000E+00
   270  2.6900000000000E+00  0.0000000000000E+00  0.0000000000000E+00
   271  2.7000000000000E+00  0.0000000000000E+00  0.0000000000000E+00
   272  2.7100000000000E+00  0.0000000000000E+00  0.0000000000000E+00
   273  2.7200000000000E+00  0.0000000000000E+00  0.0000000000000E+00
   274  2.7300000000000E+00  0.0000000000000E+00  0.0000000000000E+00
   275  2.7400000000000E+00  0.0000000000000E+00  0.0000000000000E+00
   276  2.7500000000000E+00  0.0000000000000E+00  0.0000000000000E+00
   277  2.7600000000000E+00  0.0000000000000E+00  0.0000000000000E+00
   278  2.7700000000000E+00  0.0000000000000E+00  0.0000000000000E+00
   279  2.7800000000000E+00  0.0000000000000E+00  0.0000000000000E+00
   280  2.7900000000000E+00  0.0000000000000E+00  0.0000000000000E+00
   281  2.8000000000000E+00  0.0000000000000E+00  0.0000000000000E+00
   282  2.8100000000000E+00  0.0000000000000E+00  0.0000000000000E+00
   283  2.8200000000000E+00  0.0000000000000E+00  0.0000000000000E+00
   284  2.8300000000000E+00  0.0000000000000E+00  0.0000000000000E+00
   285  2.8400000000000E+00  0.0000000000000E+00  0.0000000000000E+00
   286  2.8500000000000E+00  0.0000000000000E+00  0.0000000000000E+00
   287  2.8600000000000E+00  0.0000000000000E+00  0.0000000000000E+00
   288  2.8700000000000E+00  0.0000000000000E+00  0.0000000000000E+00
   289  2.8800000000000E+00  0.0000000000000E+00  0.0000000000000E+00
   290  2.8900000000000E+00  0.0000000000000E+00  0.0000000000000E+00
   291  2.9000000000000E+00  0.0000000000000E+00  0.0000000000000E+00
   292  2.9100000000000E+00  0.0000000000000E+00  0.0000000000000E+00
   293  2.9200000000000E+00  0.0000000000000E+00  0.0000000000000E+00
   294  2.9300000000000E+00  0.0000000000000E+00  0.0000000000000E+00
   295  2.9400000000000E+00  0.0000000000000E+00  0.0000000000000E+00
   296  2.9500000000000E+00  0.0000000000000E+00  0.0000000000000E+00
   297  2.9600000000000E+00  0.0000000000000E+00  0.0000000000000E+00
   298  2.9700000000000E+00  0.0000000000000E+00  0.0000000000000E+00
   299  2.9800000000000E+00  0.0000000000000E+00  0.0000000000000E+00
   300  2.9900000000000E+00  0.0000000000000E+00  0.0000000000000E+00
   301  3.0000000000000E+00  0.0000000000000E+00  0.0000000000000E+00
   302  3.0100000000000E+00  0.0000000000000E+00  0.0000000000000E+00
   303  3.0200000000000E+00  0.0000000000000E+00  0.0000000000000E+00
   304  3.0300000000000E+00  0.0000000000000E+00  0.0000000000000E+00
   305  3.0400000000000E+00  0.0000000000000E+00  0.0000000000000E+00
   306  3.0500000000000E+00  0.0000000000000E+00  0.0000000000000E+00
   307  3.0600000000000E+00  0.0000000000000E+00  0.0000000000000E+00
   308  3.0700000000000E+00  0.0000000000000E+00  0.0000000000000E+00
   309  3.0800000000000E+00  0.0000000000000E+00  0.0000000000000E+00
   310  3.0900000000000E+00  0.0000000000000E+00  0.0000000000000E+00
   311  3.1000000000000E+00  0.0000000000000E+00  0.0000000000000E+00
   312  3.1100000000000E+00  0.0000000000000E+00  0.0000000000000E+00
   313  3.1200000000000E+00  0.0000000000000E+00  0.0000000000000E+00
   314  3.1300000000000E+00  0.0000000000000E+00  0.0000000000000E+00
   315  3.1400000000000E+00  0.0000000000000E+00  0.0000000000000E+00
   316  3.1500000000000E+00  0.0000000000000E+00  0.0000000000000E+00
   317  3.1600000000000E+00  0.0000000000000E+00  0.0000000000000E+00
   318  3.1700000000000E+00  0.0000000000000E+00  0.0000000000000E+00
   319  3.1800000000000E+00  0.0000000000000E+00  0.0000000000000E+00
   320  3.1900000000000E+00  0.0000000000000E+00  0.0000000000000E+00
   321  3.2000000000000E+00  0.0000000000000E+00  0.0000000000000E+00
   322  3.2100000000000E+00  0.0000000000000E+00  0.0000000000000E+00
   323  3.2200000000000E+00  0.0000000000000E+00  0.0000000000000E+00
   324  3.2300000000000E+00  0.0000000000000E+00  0.0000000000000E+00
   325  3.2400000000000E+00  0.0000000000000E+00  0.0000000000000E+00
   326  3.2500000000000E+00  0.0000000000000E+00  0.0000000000000E+00
   327  3.2600000000000E+00  0.0000000000000E+00  0.0000000000000E+00
   328  3.2700000000000E+00  0.0000000000000E+00  0.0000000000000E+00
   329  3.2800000000000E+00  0.0000000000000E+00  0.0000000000000E+00
   330  3.2900000000000E+00  0.0000000000000E+00  0.0000000000000E+00
   331  3.3000000000000E+00  0.0000000000000E+00  0.0000000000000E+00
   332  3.3100000000000E+00  0.0000000000000E+00  0.0000000000000E+00
   333  3.3200000000000E+00  0.0000000000000E+00  0.0000000000000E+00
   334  3.3300000000000E+00  0.0000000000000E+00  0.0000000000000E+00
   335  3.3400000000000E+00  0.0000000000000E+00  0.0000000000000E+00
   336  3.3500000000000E+00  0.0000000000000E+00  0.0000000000000E+00
   337  3.3600000000000E+00  0.0000000000000E+00  0.0000000000000E+00
   338  3.3700000000000E+00  0.0000000000000E+00  0.0000000000000E+00
   339  3.3800000000000E+00  0.0000000000000E+00  0.0000000000000E+00
   340  3.3900000000000E+00  0.0000000000000E+00  0.0000000000000E+00
   341  3.4000000000000E+00  0.0000000000000E+00  0.0000000000000E+00
   342  3.4100000000000E+00  0.0000000000000E+00  0.0000000000000E+00
   343  3.4200000000000E+00  0.0000000000000E+00  0.0000000000000E+00
   344  3.4300000000000E+00  0.0000000000000E+00  0.0000000000000E+00
   345  3.4400000000000E+00  0.0000000000000E+00  0.0000000000000E+00
   346  3.4500000000000E+00  0.0000000000000E+00  0.0000000000000E+00
   347  3.4600000000000E+00  0.0000000000000E+00  0.0000000000000E+00
   348  3.4700000000000E+00  0.0000000000000E+00  0.0000000000000E+00
   349  3.4800000000000E+00  0.0000000000000E+00  0.0000000000000E+00
   350  3.4900000000000E+00  0.0000000000000E+00  0.0000000000000E+00
   351  3.5000000000000E+00  0.0000000000000E+00  0.0000000000000E+00
   352  3.5100000000000E+00  0.0000000000000E+00  0.0000000000000E+00
   353  3.5200000000000E+00  0.0000000000000E+00  0.0000000000000E+00
   354  3.5300000000000E+00  0.0000000000000E+00  0.0000000000000E+00
   355  3.5400000000000E+00  0.0000000000000E+00  0.0000000000000E+00
   356  3.5500000000000E+00  0.0000000000000E+00  0.0000000000000E+00
   357  3.5600000000000E+00  0.0000000000000E+00  0.0000000000000E+00
   358  3.5700000000000E+00  0.0000000000000E+00  0.0000000000000E+00
   359  3.5800000000000E+00  0.0000000000000E+00  0.0000000000000E+00
   360  3.5900000000000E+00  0.0000000000000E+00  0.0000000000000E+00
   361  3.6000000000000E+00  0.0000000000000E+00  0.0000000000000E+00
   362  3.6100000000000E+00  0.0000000000000E+00  0.0000000000000E+00
   363  3.6200000000000E+00  0.0000000000000E+00  0.0000000000000E+00
   364  3.6300000000000E+00  0.0000000000000E+00  0.0000000000000E+00
   365  3.6400000000000E+00  0.0000000000000E+00  0.0000000000000E+00
   366  3.6500000000000E+00  0.0000000000000E+00  0.0000000000000E+00
   367  3.6600000000000E+00  0.0000000000000E+00  0.0000000000000E+00
   368  3.6700000000000E+00  0.0000000000000E+00  0.0000000000000E+00
   369  3.6800000000000E+00  0.0000000000000E+00  0.0000000000000E+00
   370  3.6900000000000E+00  0.0000000000000E+00  0.0000000000000E+00
   371  3.7000000000000E+00  0.0000000000000E+00  0.0000000000000E+00
   372  3.7100000000000E+00  0.0000000000000E+00  0.0000000000000E+00
   373  3.7200000000000E+00  0.0000000000000E+00  0.0000000000000E+00
   374  3.7300000000000E+00  0.0000000000000E+00  0.0000000000000E+00
   375  3.7400000000000E+00  0.0000000000000E+00  0.0000000000000E+00
   376  3.7500000000000E+00  0.0000000000000E+00  0.0000000000000E+00
   377  3.7600000000000E+00  0.0000000000000E+00  0.0000000000000E+00
   378  3.7700000000000E+00  0.0000000000000E+00  0.0000000000000E+00
   379  3.7800000000000E+00  0.0000000000000E+00  0.0000000000000E+00
   380  3.7900000000000E+00  0.0000000000000E+00  0.0000000000000E+00
   381  3.8000000000000E+00  0.0000000000000E+00  0.0000000000000E+00
   382  3.8100000000000E+00  0.0000000000000E+00  0.0000000000000E+00
   383  3.8200000000000E+00  0.0000000000000E+00  0.0000000000000E+00
   384  3.8300000000000E+00  0.0000000000000E+00  0.0000000000000E+00
   385  3.8400000000000E+00  0.0000000000000E+00  0.0000000000000E+00
   386  3.8500000000000E+00  0.0000000000000E+00  0.0000000000000E+00
   387  3.8600000000000E+00  0.0000000000000E+00  0.0000000000000E+00
   388  3.8700000000000E+00  0.0000000000000E+00  0.0000000000000E+00
   389  3.8800000000000E+00  0.0000000000000E+00  0.0000000000000E+00
   390  3.8900000000000E+00  0.0000000000000E+00  0.0000000000000E+00
   391  3.9000000000000E+00  0.0000000000000E+00  0.0000000000000E+00
   392  3.9100000000000E+00  0.0000000000000E+00  0.0000000000000E+00
   393  3.9200000000000E+00  0.0000000000000E+00  0.0000000000000E+00
   394  3.9300000000000E+00  0.0000000000000E+00  0.0000000000000E+00
   395  3.9400000000000E+00  0.0000000000000E+00  0.0000000000000E+00
   396  3.9500000000000E+00  0.0000000000000E+00  0.0000000000000E+00
   397  3.9600000000000E+00  0.0000000000000E+00  0.0000000000000E+00
   398  3.9700000000000E+00  0.0000000000000E+00  0.0000000000000E+00
   399  3.9800000000000E+00  0.0000000000000E+00  0.0000000000000E+00
   400  3.9900000000000E+00  0.0000000000000E+00  0.0000000000000E+00
   401  4.0000000000000E+00  0.0000000000000E+00  0.0000000000000E+00
   402  4.0100000000000E+00  0.0000000000000E+00  0.0000000000000E+00
   403  4.0200000000000E+00  0.0000000000000E+00  0.0000000000000E+00
   404  4.0300000000000E+00  0.0000000000000E+00  0.0000000000000E+00
   405  4.0400000000000E+00  0.0000000000000E+00  0.0000000000000E+00
   406  4.0500000000000E+00  0.0000000000000E+00  0.0000000000000E+00
   407  4.0600000000000E+00  0.0000000000000E+00  0.0000000000000E+00
   408  4.0700000000000E+00  0.0000000000000E+00  0.0000000000000E+00
   409  4.0800000000000E+00  0.0000000000000E+00  0.0000000000000E+00
   410  4.0900000000000E+00  0.0000000000000E+00  0.0000000000000E+00
   411  4.1000000000000E+00  0.0000000000000E+00  0.0000000000000E+00
   412  4.1100000000000E+00  0.0000000000000E+00  0.0000000000000E+00
   413  4.1200000000000E+00  0.0000000000000E+00  0.0000000000000E+00
   414  4.1300000000000E+00  0.0000000000000E+00  0.0000000000000E+00
   415  4.1400000000000E+00  0.0000000000000E+00  0.0000000000000E+00
   416  4.1500000000000E+00  0.0000000000000E+00  0.0000000000000E+00
   417  4.1600000000000E+00  0.0000000000000E+00  0.0000000000000E+00
   418  4.1700000000000E+00  0.0000000000000E+00  0.0000000000000E+00
   419  4.1800000000000E+00  0.0000000000000E+00  0.0000000000000E+00
   420  4.1900000000000E+00  0.0000000000000E+00  0.0000000000000E+00
   421  4.2000000000000E+00  0.0000000000000E+00  0.0000000000000E+00
   422  4.2100000000000E+00  0.0000000000000E+00  0.0000000000000E+00
   423  4.2200000000000E+00  0.0000000000000E+00  0.0000000000000E+00