Ga   ONCVPSP-2.1.1   r_core=    2.33023 2.44411 1.97184
    31.0000   13.0000   150105   zatom,zion,pspd
    8   11   2   4   600   0   pspcod,pspxc,lmax,lloc,mmax,r2well
    5.99000000   0.00000000   0.00000000   rchrg fchrg qchrg
    2   2   2   0   0   nproj
    1   1   extension_switch
       0                         4.7958684937000E+00  3.2844185790000E-01
     1  0.0000000000000E+00  0.0000000000000E+00  0.0000000000000E+00
     2  1.0000000000000E-02 -2.6117559088000E-02  1.6643244026000E-03
     3  2.0000000000000E-02 -5.2229897149000E-02  3.2800248262000E-03
     4  3.0000000000000E-02 -7.8331760366000E-02  4.7987573162000E-03
     5  4.0000000000000E-02 -1.0441782948000E-01  6.1727366717000E-03
     6  5.0000000000000E-02 -1.3048268740000E-01  7.3550125886000E-03
     7  6.0000000000000E-02 -1.5652078728000E-01  8.2997419374000E-03
     8  7.0000000000000E-02 -1.8252642110000E-01  8.9624559172000E-03
     9  8.0000000000000E-02 -2.0849368894000E-01  9.3003208437000E-03
    10  9.0000000000000E-02 -2.3441646915000E-01  9.2723913657000E-03
    11  1.0000000000000E-01 -2.6028838935000E-01  8.8398549290000E-03
    12  1.1000000000000E-01 -2.8610279865000E-01  7.9662663523000E-03
    13  1.2000000000000E-01 -3.1185274098000E-01  6.6177714248000E-03
    14  1.3000000000000E-01 -3.3753092979000E-01  4.7633184959000E-03
    15  1.4000000000000E-01 -3.6312972420000E-01  2.3748569917000E-03
    16  1.5000000000000E-01 -3.8864110666000E-01 -5.7247790556000E-04
    17  1.6000000000000E-01 -4.1405666240000E-01 -4.1001955532000E-03
    18  1.7000000000000E-01 -4.3936756045000E-01 -8.2262955547000E-03
    19  1.8000000000000E-01 -4.6456453675000E-01 -1.2965130039000E-02
    20  1.9000000000000E-01 -4.8963787902000E-01 -1.8327282798000E-02
    21  2.0000000000000E-01 -5.1457741384000E-01 -2.4319466124000E-02
    22  2.1000000000000E-01 -5.3937249570000E-01 -3.0944435648000E-02
    23  2.2000000000000E-01 -5.6401199834000E-01 -3.8200923773000E-02
    24  2.3000000000000E-01 -5.8848430833000E-01 -4.6083592052000E-02
    25  2.4000000000000E-01 -6.1277732094000E-01 -5.4583002556000E-02
    26  2.5000000000000E-01 -6.3687843836000E-01 -6.3685608530000E-02
    27  2.6000000000000E-01 -6.6077457045000E-01 -7.3373764748000E-02
    28  2.7000000000000E-01 -6.8445213770000E-01 -8.3625756802000E-02
    29  2.8000000000000E-01 -7.0789707690000E-01 -9.4415850010000E-02
    30  2.9000000000000E-01 -7.3109484915000E-01 -1.0571435739000E-01
    31  3.0000000000000E-01 -7.5403045043000E-01 -1.1748772645000E-01
    32  3.1000000000000E-01 -7.7668842460000E-01 -1.2969864451000E-01
    33  3.2000000000000E-01 -7.9905287897000E-01 -1.4230616196000E-01
    34  3.3000000000000E-01 -8.2110750237000E-01 -1.5526583412000E-01
    35  3.4000000000000E-01 -8.4283558547000E-01 -1.6852987766000E-01
    36  3.5000000000000E-01 -8.6422004390000E-01 -1.8204734733000E-01
    37  3.6000000000000E-01 -8.8524344317000E-01 -1.9576432250000E-01
    38  3.7000000000000E-01 -9.0588802679000E-01 -2.0962411675000E-01
    39  3.8000000000000E-01 -9.2613574572000E-01 -2.2356749244000E-01
    40  3.9000000000000E-01 -9.4596829033000E-01 -2.3753289227000E-01
    41  4.0000000000000E-01 -9.6536712525000E-01 -2.5145668724000E-01
    42  4.1000000000000E-01 -9.8431352521000E-01 -2.6527342799000E-01
    43  4.2000000000000E-01 -1.0027886133000E+00 -2.7891610972000E-01
    44  4.3000000000000E-01 -1.0207734011000E+00 -2.9231644589000E-01
    45  4.4000000000000E-01 -1.0382488307000E+00 -3.0540514905000E-01
    46  4.5000000000000E-01 -1.0551958180000E+00 -3.1811221814000E-01
    47  4.6000000000000E-01 -1.0715952980000E+00 -3.3036723006000E-01
    48  4.7000000000000E-01 -1.0874282702000E+00 -3.4209963061000E-01
    49  4.8000000000000E-01 -1.1026758488000E+00 -3.5323904922000E-01
    50  4.9000000000000E-01 -1.1173193098000E+00 -3.6371558548000E-01
    51  5.0000000000000E-01 -1.1313401407000E+00 -3.7346011019000E-01
    52  5.1000000000000E-01 -1.1447200892000E+00 -3.8240454845000E-01
    53  5.2000000000000E-01 -1.1574412224000E+00 -3.9048222763000E-01
    54  5.3000000000000E-01 -1.1694859694000E+00 -3.9762810847000E-01
    55  5.4000000000000E-01 -1.1808371769000E+00 -4.0377909286000E-01
    56  5.5000000000000E-01 -1.1914781681000E+00 -4.0887434413000E-01
    57  5.6000000000000E-01 -1.2013927794000E+00 -4.1285546148000E-01
    58  5.7000000000000E-01 -1.2105654370000E+00 -4.1566688983000E-01
    59  5.8000000000000E-01 -1.2189811789000E+00 -4.1725599664000E-01
    60  5.9000000000000E-01 -1.2266257393000E+00 -4.1757350289000E-01
    61  6.0000000000000E-01 -1.2334855691000E+00 -4.1657354080000E-01
    62  6.1000000000000E-01 -1.2395479088000E+00 -4.1421399773000E-01
    63  6.2000000000000E-01 -1.2448008302000E+00 -4.1045667898000E-01
    64  6.3000000000000E-01 -1.2492332682000E+00 -4.0526741134000E-01
    65  6.4000000000000E-01 -1.2528351049000E+00 -3.9861640951000E-01
    66  6.5000000000000E-01 -1.2555971817000E+00 -3.9047826163000E-01
    67  6.6000000000000E-01 -1.2575113427000E+00 -3.8083207571000E-01
    68  6.7000000000000E-01 -1.2585705069000E+00 -3.6966174274000E-01
    69  6.8000000000000E-01 -1.2587686810000E+00 -3.5695591524000E-01
    70  6.9000000000000E-01 -1.2581010025000E+00 -3.4270811586000E-01
    71  7.0000000000000E-01 -1.2565637672000E+00 -3.2691677754000E-01
    72  7.1000000000000E-01 -1.2541544891000E+00 -3.0958539902000E-01
    73  7.2000000000000E-01 -1.2508719063000E+00 -2.9072247279000E-01
    74  7.3000000000000E-01 -1.2467160137000E+00 -2.7034151302000E-01
    75  7.4000000000000E-01 -1.2416880884000E+00 -2.4846105011000E-01
    76  7.5000000000000E-01 -1.2357907117000E+00 -2.2510460016000E-01
    77  7.6000000000000E-01 -1.2290277833000E+00 -2.0030060254000E-01
    78  7.7000000000000E-01 -1.2214045485000E+00 -1.7408238660000E-01
    79  7.8000000000000E-01 -1.2129276021000E+00 -1.4648805538000E-01
    80  7.9000000000000E-01 -1.2036048954000E+00 -1.1756037580000E-01
    81  8.0000000000000E-01 -1.1934457432000E+00 -8.7346660683000E-02
    82  8.1000000000000E-01 -1.1824608262000E+00 -5.5898626851000E-02
    83  8.2000000000000E-01 -1.1706621885000E+00 -2.3272236413000E-02
    84  8.3000000000000E-01 -1.1580632324000E+00  1.0472478034000E-02
    85  8.4000000000000E-01 -1.1446787090000E+00  4.5271603544000E-02
    86  8.5000000000000E-01 -1.1305247056000E+00  8.1057551459000E-02
    87  8.6000000000000E-01 -1.1156186289000E+00  1.1775927566000E-01
    88  8.7000000000000E-01 -1.0999791852000E+00  1.5530250354000E-01
    89  8.8000000000000E-01 -1.0836263558000E+00  1.9360997862000E-01
    90  8.9000000000000E-01 -1.0665813702000E+00  2.3260171394000E-01
    91  9.0000000000000E-01 -1.0488666744000E+00  2.7219525493000E-01
    92  9.1000000000000E-01 -1.0305058962000E+00  3.1230595081000E-01
    93  9.2000000000000E-01 -1.0115238074000E+00  3.5284723317000E-01
    94  9.3000000000000E-01 -9.9194628166000E-01  3.9373089896000E-01
    95  9.4000000000000E-01 -9.7180025264000E-01  4.3486734389000E-01
    96  9.5000000000000E-01 -9.5111366089000E-01  4.7616601362000E-01
    97  9.6000000000000E-01 -9.2991540418000E-01  5.1753556322000E-01
    98  9.7000000000000E-01 -9.0823528304000E-01  5.5888419548000E-01
    99  9.8000000000000E-01 -8.8610394338000E-01  6.0011995882000E-01
   100  9.9000000000000E-01 -8.6355281652000E-01  6.4115104334000E-01
   101  1.0000000000000E+00 -8.4061405690000E-01  6.8188607370000E-01
   102  1.0100000000000E+00 -8.1732049131000E-01  7.2223429265000E-01
   103  1.0200000000000E+00 -7.9370553076000E-01  7.6210603932000E-01
   104  1.0300000000000E+00 -7.6980308737000E-01  8.0141308876000E-01
   105  1.0400000000000E+00 -7.4564753281000E-01  8.4006870183000E-01
   106  1.0500000000000E+00 -7.2127361557000E-01  8.7798797684000E-01
   107  1.0600000000000E+00 -6.9671639901000E-01  9.1508804005000E-01
   108  1.0700000000000E+00 -6.7201121642000E-01  9.5128815367000E-01
   109  1.0800000000000E+00 -6.4719344420000E-01  9.8651077098000E-01
   110  1.0900000000000E+00 -6.2229857416000E-01  1.0206808913000E+00
   111  1.1000000000000E+00 -5.9736209460000E-01  1.0537265289000E+00
   112  1.1100000000000E+00 -5.7241949933000E-01  1.0855785312000E+00
   113  1.1200000000000E+00 -5.4750599500000E-01  1.1161717843000E+00
   114  1.1300000000000E+00 -5.2265653033000E-01  1.1454448039000E+00
   115  1.1400000000000E+00 -4.9790577135000E-01  1.1733396848000E+00
   116  1.1500000000000E+00 -4.7328813212000E-01  1.1998018817000E+00
   117  1.1600000000000E+00 -4.4883732796000E-01  1.2247818113000E+00
   118  1.1700000000000E+00 -4.2458653224000E-01  1.2482339522000E+00
   119  1.1800000000000E+00 -4.0056838525000E-01  1.2701166930000E+00
   120  1.1900000000000E+00 -3.7681497873000E-01  1.2903923275000E+00
   121  1.2000000000000E+00 -3.5335722204000E-01  1.3090289282000E+00
   122  1.2100000000000E+00 -3.3022537624000E-01  1.3259983374000E+00
   123  1.2200000000000E+00 -3.0744907112000E-01  1.3412761351000E+00
   124  1.2300000000000E+00 -2.8505650718000E-01  1.3548438046000E+00
   125  1.2400000000000E+00 -2.6307493287000E-01  1.3666870254000E+00
   126  1.2500000000000E+00 -2.4153084602000E-01  1.3767951333000E+00
   127  1.2600000000000E+00 -2.2044921701000E-01  1.3851629866000E+00
   128  1.2700000000000E+00 -1.9985373611000E-01  1.3917899749000E+00
   129  1.2800000000000E+00 -1.7976730527000E-01  1.3966788694000E+00
   130  1.2900000000000E+00 -1.6021106970000E-01  1.3998378413000E+00
   131  1.3000000000000E+00 -1.4120476020000E-01  1.4012793307000E+00
   132  1.3100000000000E+00 -1.2276732240000E-01  1.4010188767000E+00
   133  1.3200000000000E+00 -1.0491554129000E-01  1.3990774582000E+00
   134  1.3300000000000E+00 -8.7664928432000E-02  1.3954795389000E+00
   135  1.3400000000000E+00 -7.1030153649000E-02  1.3902525870000E+00
   136  1.3500000000000E+00 -5.5023259001000E-02  1.3834293095000E+00
   137  1.3600000000000E+00 -3.9655542768000E-02  1.3750448271000E+00
   138  1.3700000000000E+00 -2.4936686436000E-02  1.3651379160000E+00
   139  1.3800000000000E+00 -1.0874233580000E-02  1.3537510159000E+00
   140  1.3900000000000E+00  2.5249048867000E-03  1.3409288833000E+00
   141  1.4000000000000E+00  1.5256308363000E-02  1.3267198893000E+00
   142  1.4100000000000E+00  2.7316671681000E-02  1.3111746571000E+00
   143  1.4200000000000E+00  3.8704034331000E-02  1.2943464613000E+00
   144  1.4300000000000E+00  4.9418738592000E-02  1.2762908922000E+00
   145  1.4400000000000E+00  5.9461625056000E-02  1.2570656963000E+00
   146  1.4500000000000E+00  6.8836069192000E-02  1.2367304553000E+00
   147  1.4600000000000E+00  7.7546258748000E-02  1.2153465075000E+00
   148  1.4700000000000E+00  8.5598027879000E-02  1.1929768805000E+00
   149  1.4800000000000E+00  9.2998895024000E-02  1.1696853824000E+00
   150  1.4900000000000E+00  9.9757124420000E-02  1.1455380028000E+00
   151  1.5000000000000E+00  1.0588321458000E-01  1.1206000950000E+00
   152  1.5100000000000E+00  1.1138805487000E-01  1.0949395277000E+00
   153  1.5200000000000E+00  1.1628457284000E-01  1.0686229245000E+00
   154  1.5300000000000E+00  1.2058632705000E-01  1.0417186168000E+00
   155  1.5400000000000E+00  1.2430836165000E-01  1.0142942750000E+00
   156  1.5500000000000E+00  1.2746664955000E-01  9.8641759127000E-01
   157  1.5600000000000E+00  1.3007822014000E-01  9.5815672059000E-01
   158  1.5700000000000E+00  1.3216110470000E-01  9.2957781815000E-01
   159  1.5800000000000E+00  1.3373416968000E-01  9.0074891076000E-01
   160  1.5900000000000E+00  1.3481712855000E-01  8.7173383260000E-01
   161  1.6000000000000E+00  1.3543050840000E-01  8.4259982946000E-01
   162  1.6100000000000E+00  1.3559532520000E-01  8.1340776465000E-01
   163  1.6200000000000E+00  1.3533355077000E-01  7.8422334425000E-01
   164  1.6300000000000E+00  1.3466716053000E-01  7.5510417616000E-01
   165  1.6400000000000E+00  1.3361923978000E-01  7.2611306865000E-01
   166  1.6500000000000E+00  1.3221245235000E-01  6.9730446869000E-01
   167  1.6600000000000E+00  1.3047066035000E-01  6.6873754707000E-01
   168  1.6700000000000E+00  1.2841689473000E-01  6.4046293205000E-01
   169  1.6800000000000E+00  1.2607548328000E-01  6.1253576050000E-01
   170  1.6900000000000E+00  1.2346947177000E-01  5.8500216422000E-01
   171  1.7000000000000E+00  1.2062336905000E-01  5.5791294001000E-01
   172  1.7100000000000E+00  1.1755985292000E-01  5.3130903079000E-01
   173  1.7200000000000E+00  1.1430336074000E-01  5.0523666489000E-01
   174  1.7300000000000E+00  1.1087579200000E-01  4.7973089473000E-01
   175  1.7400000000000E+00  1.0730129438000E-01  4.5483321419000E-01
   176  1.7500000000000E+00  1.0360057691000E-01  4.3057214023000E-01
   177  1.7600000000000E+00  9.9797254158000E-02  4.0698413290000E-01
   178  1.7700000000000E+00  9.5910632609000E-02  3.8409113631000E-01
   179  1.7800000000000E+00  9.1963098353000E-02  3.6192296850000E-01
   180  1.7900000000000E+00  8.7972726056000E-02  3.4049595608000E-01
   181  1.8000000000000E+00  8.3960080036000E-02  3.1983213026000E-01
   182  1.8100000000000E+00  7.9941963188000E-02  2.9994230500000E-01
   183  1.8200000000000E+00  7.5936584413000E-02  2.8083982123000E-01
   184  1.8300000000000E+00  7.1959496118000E-02  2.6253015554000E-01
   185  1.8400000000000E+00  6.8026002174000E-02  2.4501699330000E-01
   186  1.8500000000000E+00  6.4150467012000E-02  2.2830069044000E-01
   187  1.8600000000000E+00  6.0344747989000E-02  2.1237421499000E-01
   188  1.8700000000000E+00  5.6622083338000E-02  1.9723296141000E-01
   189  1.8800000000000E+00  5.2990488174000E-02  1.8285883627000E-01
   190  1.8900000000000E+00  4.9461808471000E-02  1.6924008603000E-01
   191  1.9000000000000E+00  4.6041358536000E-02  1.5635459960000E-01
   192  1.9100000000000E+00  4.2737799577000E-02  1.4418241542000E-01
   193  1.9200000000000E+00  3.9555967293000E-02  1.3270252525000E-01
   194  1.9300000000000E+00  3.6501308198000E-02  1.2189291039000E-01
   195  1.9400000000000E+00  3.3578142998000E-02  1.1173141952000E-01
   196  1.9500000000000E+00  3.0788866171000E-02  1.0219574423000E-01
   197  1.9600000000000E+00  2.8137272032000E-02  9.3262285506000E-02
   198  1.9700000000000E+00  2.5623297864000E-02  8.4909163948000E-02
   199  1.9800000000000E+00  2.3249186085000E-02  7.7111972300000E-02
   200  1.9900000000000E+00  2.1013913095000E-02  6.9848793978000E-02
   201  2.0000000000000E+00  1.8917172286000E-02  6.3096054268000E-02
   202  2.0100000000000E+00  1.6957818724000E-02  5.6830757431000E-02
   203  2.0200000000000E+00  1.5133126796000E-02  5.1031383842000E-02
   204  2.0300000000000E+00  1.3441624050000E-02  4.5673485764000E-02
   205  2.0400000000000E+00  1.1879097546000E-02  4.0737407371000E-02
   206  2.0500000000000E+00  1.0442511743000E-02  3.6199844318000E-02
   207  2.0600000000000E+00  9.1275965830000E-03  3.2040348554000E-02
   208  2.0700000000000E+00  7.9296464203000E-03  2.8238710802000E-02
   209  2.0800000000000E+00  6.8442072011000E-03  2.4772840977000E-02
   210  2.0900000000000E+00  5.8656833958000E-03  2.1625424194000E-02
   211  2.1000000000000E+00  4.9888073811000E-03  1.8775174843000E-02
   212  2.1100000000000E+00  4.2078858687000E-03  1.6204643346000E-02
   213  2.1200000000000E+00  3.5170174836000E-03  1.3896132573000E-02
   214  2.1300000000000E+00  2.9101882378000E-03  1.1830238600000E-02
   215  2.1400000000000E+00  2.3815292086000E-03  9.9925315024000E-03
   216  2.1500000000000E+00  1.9246635952000E-03  8.3647320891000E-03
   217  2.1600000000000E+00  1.5337279748000E-03  6.9319309574000E-03
   218  2.1700000000000E+00  1.2028708250000E-03  5.6798242243000E-03
   219  2.1800000000000E+00  9.2549917074000E-04  4.5913395234000E-03
   220  2.1900000000000E+00  6.9668360507000E-04  3.6550866229000E-03
   221  2.2000000000000E+00  5.1030943046000E-04  2.8562711511000E-03
   222  2.2100000000000E+00  3.6096943870000E-04  2.1817348315000E-03
   223  2.2200000000000E+00  2.4422461999000E-04  1.6205655596000E-03
   224  2.2300000000000E+00  1.5404947448000E-04  1.1586535543000E-03
   225  2.2400000000000E+00  8.6935913435000E-05  7.8631337548000E-04
   226  2.2500000000000E+00  3.8703549673000E-05  4.9266706511000E-04
   227  2.2600000000000E+00  4.4612080822000E-06  2.6563343379000E-04
   228  2.2700000000000E+00 -1.7745075365000E-05  9.7295509355000E-05
   229  2.2800000000000E+00 -3.1770766874000E-05 -2.2971626254000E-05
   230  2.2900000000000E+00 -4.0267430328000E-05 -1.0440693718000E-04
   231  2.3000000000000E+00 -4.4297470419000E-05 -1.5438384836000E-04
   232  2.3100000000000E+00 -4.8958336617000E-05 -1.9223651017000E-04
   233  2.3200000000000E+00 -5.1555826182000E-05 -2.1091006475000E-04
   234  2.3300000000000E+00 -4.9157878532000E-05 -2.0258206096000E-04
   235  2.3400000000000E+00 -3.2906988870000E-05 -1.3700683792000E-04
   236  2.3500000000000E+00 -1.4019834059000E-05 -5.8781251702000E-05
   237  2.3600000000000E+00  9.8131611238000E-07  4.0438044212000E-06
   238  2.3700000000000E+00  3.2807534967000E-06  1.3519318930000E-05
   239  2.3800000000000E+00  1.8643346684000E-06  7.6825445741000E-06
   240  2.3900000000000E+00  0.0000000000000E+00  0.0000000000000E+00
   241  2.4000000000000E+00  0.0000000000000E+00  0.0000000000000E+00
   242  2.4100000000000E+00  0.0000000000000E+00  0.0000000000000E+00
   243  2.4200000000000E+00  0.0000000000000E+00  0.0000000000000E+00
   244  2.4300000000000E+00  0.0000000000000E+00  0.0000000000000E+00
   245  2.4400000000000E+00  0.0000000000000E+00  0.0000000000000E+00
   246  2.4500000000000E+00  0.0000000000000E+00  0.0000000000000E+00
   247  2.4600000000000E+00  0.0000000000000E+00  0.0000000000000E+00
   248  2.4700000000000E+00  0.0000000000000E+00  0.0000000000000E+00
   249  2.4800000000000E+00  0.0000000000000E+00  0.0000000000000E+00
   250  2.4900000000000E+00  0.0000000000000E+00  0.0000000000000E+00
   251  2.5000000000000E+00  0.0000000000000E+00  0.0000000000000E+00
   252  2.5100000000000E+00  0.0000000000000E+00  0.0000000000000E+00
   253  2.5200000000000E+00  0.0000000000000E+00  0.0000000000000E+00
   254  2.5300000000000E+00  0.0000000000000E+00  0.0000000000000E+00
   255  2.5400000000000E+00  0.0000000000000E+00  0.0000000000000E+00
   256  2.5500000000000E+00  0.0000000000000E+00  0.0000000000000E+00
   257  2.5600000000000E+00  0.0000000000000E+00  0.0000000000000E+00
   258  2.5700000000000E+00  0.0000000000000E+00  0.0000000000000E+00
   259  2.5800000000000E+00  0.0000000000000E+00  0.0000000000000E+00
   260  2.5900000000000E+00  0.0000000000000E+00  0.0000000000000E+00
   261  2.6000000000000E+00  0.0000000000000E+00  0.0000000000000E+00
   262  2.6100000000000E+00  0.0000000000000E+00  0.0000000000000E+00
   263  2.6200000000000E+00  0.0000000000000E+00  0.0000000000000E+00
   264  2.6300000000000E+00  0.0000000000000E+00  0.0000000000000E+00
   265  2.6400000000000E+00  0.0000000000000E+00  0.0000000000000E+00
   266  2.6500000000000E+00  0.0000000000000E+00  0.0000000000000E+00
   267  2.6600000000000E+00  0.0000000000000E+00  0.0000000000000E+00
   268  2.6700000000000E+00  0.0000000000000E+00  0.0000000000000E+00
   269  2.6800000000000E+00  0.0000000000000E+00  0.0000000000000E+00
   270  2.6900000000000E+00  0.0000000000000E+00  0.0000000000000E+00
   271  2.7000000000000E+00  0.0000000000000E+00  0.0000000000000E+00
   272  2.7100000000000E+00  0.0000000000000E+00  0.0000000000000E+00
   273  2.7200000000000E+00  0.0000000000000E+00  0.0000000000000E+00
   274  2.7300000000000E+00  0.0000000000000E+00  0.0000000000000E+00
   275  2.7400000000000E+00  0.0000000000000E+00  0.0000000000000E+00
   276  2.7500000000000E+00  0.0000000000000E+00  0.0000000000000E+00
   277  2.7600000000000E+00  0.0000000000000E+00  0.0000000000000E+00
   278  2.7700000000000E+00  0.0000000000000E+00  0.0000000000000E+00
   279  2.7800000000000E+00  0.0000000000000E+00  0.0000000000000E+00
   280  2.7900000000000E+00  0.0000000000000E+00  0.0000000000000E+00
   281  2.8000000000000E+00  0.0000000000000E+00  0.0000000000000E+00
   282  2.8100000000000E+00  0.0000000000000E+00  0.0000000000000E+00
   283  2.8200000000000E+00  0.0000000000000E+00  0.0000000000000E+00
   284  2.8300000000000E+00  0.0000000000000E+00  0.0000000000000E+00
   285  2.8400000000000E+00  0.0000000000000E+00  0.0000000000000E+00
   286  2.8500000000000E+00  0.0000000000000E+00  0.0000000000000E+00
   287  2.8600000000000E+00  0.0000000000000E+00  0.0000000000000E+00
   288  2.8700000000000E+00  0.0000000000000E+00  0.0000000000000E+00
   289  2.8800000000000E+00  0.0000000000000E+00  0.0000000000000E+00
   290  2.8900000000000E+00  0.0000000000000E+00  0.0000000000000E+00
   291  2.9000000000000E+00  0.0000000000000E+00  0.0000000000000E+00
   292  2.9100000000000E+00  0.0000000000000E+00  0.0000000000000E+00
   293  2.9200000000000E+00  0.0000000000000E+00  0.0000000000000E+00
   294  2.9300000000000E+00  0.0000000000000E+00  0.0000000000000E+00
   295  2.9400000000000E+00  0.0000000000000E+00  0.0000000000000E+00
   296  2.9500000000000E+00  0.0000000000000E+00  0.0000000000000E+00
   297  2.9600000000000E+00  0.0000000000000E+00  0.0000000000000E+00
   298  2.9700000000000E+00  0.0000000000000E+00  0.0000000000000E+00
   299  2.9800000000000E+00  0.0000000000000E+00  0.0000000000000E+00
   300  2.9900000000000E+00  0.0000000000000E+00  0.0000000000000E+00
   301  3.0000000000000E+00  0.0000000000000E+00  0.0000000000000E+00
   302  3.0100000000000E+00  0.0000000000000E+00  0.0000000000000E+00
   303  3.0200000000000E+00  0.0000000000000E+00  0.0000000000000E+00
   304  3.0300000000000E+00  0.0000000000000E+00  0.0000000000000E+00
   305  3.0400000000000E+00  0.0000000000000E+00  0.0000000000000E+00
   306  3.0500000000000E+00  0.0000000000000E+00  0.0000000000000E+00
   307  3.0600000000000E+00  0.0000000000000E+00  0.0000000000000E+00
   308  3.0700000000000E+00  0.0000000000000E+00  0.0000000000000E+00
   309  3.0800000000000E+00  0.0000000000000E+00  0.0000000000000E+00
   310  3.0900000000000E+00  0.0000000000000E+00  0.0000000000000E+00
   311  3.1000000000000E+00  0.0000000000000E+00  0.0000000000000E+00
   312  3.1100000000000E+00  0.0000000000000E+00  0.0000000000000E+00
   313  3.1200000000000E+00  0.0000000000000E+00  0.0000000000000E+00
   314  3.1300000000000E+00  0.0000000000000E+00  0.0000000000000E+00
   315  3.1400000000000E+00  0.0000000000000E+00  0.0000000000000E+00
   316  3.1500000000000E+00  0.0000000000000E+00  0.0000000000000E+00
   317  3.1600000000000E+00  0.0000000000000E+00  0.0000000000000E+00
   318  3.1700000000000E+00  0.0000000000000E+00  0.0000000000000E+00
   319  3.1800000000000E+00  0.0000000000000E+00  0.0000000000000E+00
   320  3.1900000000000E+00  0.0000000000000E+00  0.0000000000000E+00
   321  3.2000000000000E+00  0.0000000000000E+00  0.0000000000000E+00
   322  3.2100000000000E+00  0.0000000000000E+00  0.0000000000000E+00
   323  3.2200000000000E+00  0.0000000000000E+00  0.0000000000000E+00
   324  3.2300000000000E+00  0.0000000000000E+00  0.0000000000000E+00
   325  3.2400000000000E+00  0.0000000000000E+00  0.0000000000000E+00
   326  3.2500000000000E+00  0.0000000000000E+00  0.0000000000000E+00
   327  3.2600000000000E+00  0.0000000000000E+00  0.0000000000000E+00
   328  3.2700000000000E+00  0.0000000000000E+00  0.0000000000000E+00
   329  3.2800000000000E+00  0.0000000000000E+00  0.0000000000000E+00
   330  3.2900000000000E+00  0.0000000000000E+00  0.0000000000000E+00
   331  3.3000000000000E+00  0.0000000000000E+00  0.0000000000000E+00
   332  3.3100000000000E+00  0.0000000000000E+00  0.0000000000000E+00
   333  3.3200000000000E+00  0.0000000000000E+00  0.0000000000000E+00
   334  3.3300000000000E+00  0.0000000000000E+00  0.0000000000000E+00
   335  3.3400000000000E+00  0.0000000000000E+00  0.0000000000000E+00
   336  3.3500000000000E+00  0.0000000000000E+00  0.0000000000000E+00
   337  3.3600000000000E+00  0.0000000000000E+00  0.0000000000000E+00
   338  3.3700000000000E+00  0.0000000000000E+00  0.0000000000000E+00
   339  3.3800000000000E+00  0.0000000000000E+00  0.0000000000000E+00
   340  3.3900000000000E+00  0.0000000000000E+00  0.0000000000000E+00
   341  3.4000000000000E+00  0.0000000000000E+00  0.0000000000000E+00
   342  3.4100000000000E+00  0.0000000000000E+00  0.0000000000000E+00
   343  3.4200000000000E+00  0.0000000000000E+00  0.0000000000000E+00
   344  3.4300000000000E+00  0.0000000000000E+00  0.0000000000000E+00
   345  3.4400000000000E+00  0.0000000000000E+00  0.0000000000000E+00
   346  3.4500000000000E+00  0.0000000000000E+00  0.0000000000000E+00
   347  3.4600000000000E+00  0.0000000000000E+00  0.0000000000000E+00
   348  3.4700000000000E+00  0.0000000000000E+00  0.0000000000000E+00
   349  3.4800000000000E+00  0.0000000000000E+00  0.0000000000000E+00
   350  3.4900000000000E+00  0.0000000000000E+00  0.0000000000000E+00
   351  3.5000000000000E+00  0.0000000000000E+00  0.0000000000000E+00
   352  3.5100000000000E+00  0.0000000000000E+00  0.0000000000000E+00
   353  3.5200000000000E+00  0.0000000000000E+00  0.0000000000000E+00
   354  3.5300000000000E+00  0.0000000000000E+00  0.0000000000000E+00
   355  3.5400000000000E+00  0.0000000000000E+00  0.0000000000000E+00
   356  3.5500000000000E+00  0.0000000000000E+00  0.0000000000000E+00
   357  3.5600000000000E+00  0.0000000000000E+00  0.0000000000000E+00
   358  3.5700000000000E+00  0.0000000000000E+00  0.0000000000000E+00
   359  3.5800000000000E+00  0.0000000000000E+00  0.0000000000000E+00
   360  3.5900000000000E+00  0.0000000000000E+00  0.0000000000000E+00
   361  3.6000000000000E+00  0.0000000000000E+00  0.0000000000000E+00
   362  3.6100000000000E+00  0.0000000000000E+00  0.0000000000000E+00
   363  3.6200000000000E+00  0.0000000000000E+00  0.0000000000000E+00
   364  3.6300000000000E+00  0.0000000000000E+00  0.0000000000000E+00
   365  3.6400000000000E+00  0.0000000000000E+00  0.0000000000000E+00
   366  3.6500000000000E+00  0.0000000000000E+00  0.0000000000000E+00
   367  3.6600000000000E+00  0.0000000000000E+00  0.0000000000000E+00
   368  3.6700000000000E+00  0.0000000000000E+00  0.0000000000000E+00
   369  3.6800000000000E+00  0.0000000000000E+00  0.0000000000000E+00
   370  3.6900000000000E+00  0.0000000000000E+00  0.0000000000000E+00
   371  3.7000000000000E+00  0.0000000000000E+00  0.0000000000000E+00
   372  3.7100000000000E+00  0.0000000000000E+00  0.0000000000000E+00
   373  3.7200000000000E+00  0.0000000000000E+00  0.0000000000000E+00
   374  3.7300000000000E+00  0.0000000000000E+00  0.0000000000000E+00
   375  3.7400000000000E+00  0.0000000000000E+00  0.0000000000000E+00
   376  3.7500000000000E+00  0.0000000000000E+00  0.0000000000000E+00
   377  3.7600000000000E+00  0.0000000000000E+00  0.0000000000000E+00
   378  3.7700000000000E+00  0.0000000000000E+00  0.0000000000000E+00
   379  3.7800000000000E+00  0.0000000000000E+00  0.0000000000000E+00
   380  3.7900000000000E+00  0.0000000000000E+00  0.0000000000000E+00
   381  3.8000000000000E+00  0.0000000000000E+00  0.0000000000000E+00
   382  3.8100000000000E+00  0.0000000000000E+00  0.0000000000000E+00
   383  3.8200000000000E+00  0.0000000000000E+00  0.0000000000000E+00
   384  3.8300000000000E+00  0.0000000000000E+00  0.0000000000000E+00
   385  3.8400000000000E+00  0.0000000000000E+00  0.0000000000000E+00
   386  3.8500000000000E+00  0.0000000000000E+00  0.0000000000000E+00
   387  3.8600000000000E+00  0.0000000000000E+00  0.0000000000000E+00
   388  3.8700000000000E+00  0.0000000000000E+00  0.0000000000000E+00
   389  3.8800000000000E+00  0.0000000000000E+00  0.0000000000000E+00
   390  3.8900000000000E+00  0.0000000000000E+00  0.0000000000000E+00
   391  3.9000000000000E+00  0.0000000000000E+00  0.0000000000000E+00
   392  3.9100000000000E+00  0.0000000000000E+00  0.0000000000000E+00
   393  3.9200000000000E+00  0.0000000000000E+00  0.0000000000000E+00
   394  3.9300000000000E+00  0.0000000000000E+00  0.0000000000000E+00
   395  3.9400000000000E+00  0.0000000000000E+00  0.0000000000000E+00
   396  3.9500000000000E+00  0.0000000000000E+00  0.0000000000000E+00
   397  3.9600000000000E+00  0.0000000000000E+00  0.0000000000000E+00
   398  3.9700000000000E+00  0.0000000000000E+00  0.0000000000000E+00
   399  3.9800000000000E+00  0.0000000000000E+00  0.0000000000000E+00
   400  3.9900000000000E+00  0.0000000000000E+00  0.0000000000000E+00
   401  4.0000000000000E+00  0.0000000000000E+00  0.0000000000000E+00
   402  4.0100000000000E+00  0.0000000000000E+00  0.0000000000000E+00
   403  4.0200000000000E+00  0.0000000000000E+00  0.0000000000000E+00
   404  4.0300000000000E+00  0.0000000000000E+00  0.0000000000000E+00
   405  4.0400000000000E+00  0.0000000000000E+00  0.0000000000000E+00
   406  4.0500000000000E+00  0.0000000000000E+00  0.0000000000000E+00
   407  4.0600000000000E+00  0.0000000000000E+00  0.0000000000000E+00
   408  4.0700000000000E+00  0.0000000000000E+00  0.0000000000000E+00
   409  4.0800000000000E+00  0.0000000000000E+00  0.0000000000000E+00
   410  4.0900000000000E+00  0.0000000000000E+00  0.0000000000000E+00
   411  4.1000000000000E+00  0.0000000000000E+00  0.0000000000000E+00
   412  4.1100000000000E+00  0.0000000000000E+00  0.0000000000000E+00
   413  4.1200000000000E+00  0.0000000000000E+00  0.0000000000000E+00
   414  4.1300000000000E+00  0.0000000000000E+00  0.0000000000000E+00
   415  4.1400000000000E+00  0.0000000000000E+00  0.0000000000000E+00
   416  4.1500000000000E+00  0.0000000000000E+00  0.0000000000000E+00
   417  4.1600000000000E+00  0.0000000000000E+00  0.0000000000000E+00
   418  4.1700000000000E+00  0.0000000000000E+00  0.0000000000000E+00
   419  4.1800000000000E+00  0.0000000000000E+00  0.0000000000000E+00
   420  4.1900000000000E+00  0.0000000000000E+00  0.0000000000000E+00
   421  4.2000000000000E+00  0.0000000000000E+00  0.0000000000000E+00
   422  4.2100000000000E+00  0.0000000000000E+00  0.0000000000000E+00
   423  4.2200000000000E+00  0.0000000000000E+00  0.0000000000000E+00