As   ONCVPSP-2.1.1   r_core=    2.94957 2.01365 2.94957
    33.0000   5.0000   150415   zatom,zion,pspd
    8   11   2   4   600   0   pspcod,pspxc,lmax,lloc,mmax,r2well
    5.99000000   0.00000000   0.00000000   rchrg fchrg qchrg
    2   2   2   0   0   nproj
    1   1   extension_switch
       0                         4.4897825060000E+00  5.9344855905000E-01
     1  0.0000000000000E+00  0.0000000000000E+00  0.0000000000000E+00
     2  1.0000000000000E-02 -2.6041779760000E-02  7.4081319857000E-04
     3  2.0000000000000E-02 -5.2076716484000E-02  1.4975973451000E-03
     4  3.0000000000000E-02 -7.8097944738000E-02  2.2862400517000E-03
     5  4.0000000000000E-02 -1.0409855438000E-01  3.1224625035000E-03
     6  5.0000000000000E-02 -1.3007156840000E-01  4.0217368531000E-03
     7  6.0000000000000E-02 -1.5600992107000E-01  4.9992043470000E-03
     8  7.0000000000000E-02 -1.8190643639000E-01  6.0695944227000E-03
     9  8.0000000000000E-02 -2.0775380699000E-01  7.2471450178000E-03
    10  9.0000000000000E-02 -2.3354457352000E-01  8.5455243307000E-03
    11  1.0000000000000E-01 -2.5927110465000E-01  9.9777542675000E-03
    12  1.1000000000000E-01 -2.8492557778000E-01  1.1556135811000E-02
    13  1.2000000000000E-01 -3.1049996045000E-01  1.3292176540000E-02
    14  1.3000000000000E-01 -3.3598599264000E-01  1.5196520529000E-02
    15  1.4000000000000E-01 -3.6137516992000E-01  1.7278880855000E-02
    16  1.5000000000000E-01 -3.8665872768000E-01  1.9547974919000E-02
    17  1.6000000000000E-01 -4.1182762633000E-01  2.2011462816000E-02
    18  1.7000000000000E-01 -4.3687253772000E-01  2.4675888945000E-02
    19  1.8000000000000E-01 -4.6178383267000E-01  2.7546627082000E-02
    20  1.9000000000000E-01 -4.8655156987000E-01  3.0627829074000E-02
    21  2.0000000000000E-01 -5.1116548602000E-01  3.3922377454000E-02
    22  2.1000000000000E-01 -5.3561498741000E-01  3.7431841944000E-02
    23  2.2000000000000E-01 -5.5988914298000E-01  4.1156440319000E-02
    24  2.3000000000000E-01 -5.8397667876000E-01  4.5095003527000E-02
    25  2.4000000000000E-01 -6.0786597406000E-01  4.9244945446000E-02
    26  2.5000000000000E-01 -6.3154505901000E-01  5.3602237129000E-02
    27  2.6000000000000E-01 -6.5500161400000E-01  5.8161386202000E-02
    28  2.7000000000000E-01 -6.7822297057000E-01  6.2915420794000E-02
    29  2.8000000000000E-01 -7.0119611419000E-01  6.7855878937000E-02
    30  2.9000000000000E-01 -7.2390768866000E-01  7.2972802893000E-02
    31  3.0000000000000E-01 -7.4634400236000E-01  7.8254738823000E-02
    32  3.1000000000000E-01 -7.6849103624000E-01  8.3688741825000E-02
    33  3.2000000000000E-01 -7.9033445360000E-01  8.9260386413000E-02
    34  3.3000000000000E-01 -8.1185961172000E-01  9.4953782353000E-02
    35  3.4000000000000E-01 -8.3305157536000E-01  1.0075159619000E-01
    36  3.5000000000000E-01 -8.5389513184000E-01  1.0663507810000E-01
    37  3.6000000000000E-01 -8.7437480831000E-01  1.1258409458000E-01
    38  3.7000000000000E-01 -8.9447489052000E-01  1.1857716642000E-01
    39  3.8000000000000E-01 -9.1417944320000E-01  1.2459151189000E-01
    40  3.9000000000000E-01 -9.3347233297000E-01  1.3060309652000E-01
    41  4.0000000000000E-01 -9.5233725207000E-01  1.3658668699000E-01
    42  4.1000000000000E-01 -9.7075774427000E-01  1.4251591097000E-01
    43  4.2000000000000E-01 -9.8871723231000E-01  1.4836332213000E-01
    44  4.3000000000000E-01 -1.0061990470000E+00  1.5410047032000E-01
    45  4.4000000000000E-01 -1.0231864578000E+00  1.5969797659000E-01
    46  4.5000000000000E-01 -1.0396627049000E+00  1.6512561328000E-01
    47  4.6000000000000E-01 -1.0556110330000E+00  1.7035238852000E-01
    48  4.7000000000000E-01 -1.0710147259000E+00  1.7534663540000E-01
    49  4.8000000000000E-01 -1.0858571415000E+00  1.8007610280000E-01
    50  4.9000000000000E-01 -1.1001217522000E+00  1.8450805862000E-01
    51  5.0000000000000E-01 -1.1137921811000E+00  1.8860938719000E-01
    52  5.1000000000000E-01 -1.1268522407000E+00  1.9234669153000E-01
    53  5.2000000000000E-01 -1.1392859743000E+00  1.9568640299000E-01
    54  5.3000000000000E-01 -1.1510777002000E+00  1.9859490120000E-01
    55  5.4000000000000E-01 -1.1622120451000E+00  2.0103860587000E-01
    56  5.5000000000000E-01 -1.1726739979000E+00  2.0298412049000E-01
    57  5.6000000000000E-01 -1.1824489420000E+00  2.0439832450000E-01
    58  5.7000000000000E-01 -1.1915227062000E+00  2.0524851173000E-01
    59  5.8000000000000E-01 -1.1998816022000E+00  2.0550249567000E-01
    60  5.9000000000000E-01 -1.2075124753000E+00  2.0512875032000E-01
    61  6.0000000000000E-01 -1.2144027353000E+00  2.0409649819000E-01
    62  6.1000000000000E-01 -1.2205404200000E+00  2.0237588649000E-01
    63  6.2000000000000E-01 -1.2259142122000E+00  1.9993804026000E-01
    64  6.3000000000000E-01 -1.2305135055000E+00  1.9675524471000E-01
    65  6.4000000000000E-01 -1.2343284364000E+00  1.9280103919000E-01
    66  6.5000000000000E-01 -1.2373499146000E+00  1.8805030630000E-01
    67  6.6000000000000E-01 -1.2395696845000E+00  1.8247944478000E-01
    68  6.7000000000000E-01 -1.2409803527000E+00  1.7606645283000E-01
    69  6.8000000000000E-01 -1.2415754228000E+00  1.6879102866000E-01
    70  6.9000000000000E-01 -1.2413493264000E+00  1.6063466222000E-01
    71  7.0000000000000E-01 -1.2402974846000E+00  1.5158081153000E-01
    72  7.1000000000000E-01 -1.2384163156000E+00  1.4161493078000E-01
    73  7.2000000000000E-01 -1.2357032734000E+00  1.3072458265000E-01
    74  7.3000000000000E-01 -1.2321568778000E+00  1.1889952817000E-01
    75  7.4000000000000E-01 -1.2277767376000E+00  1.0613179813000E-01
    76  7.5000000000000E-01 -1.2225635863000E+00  9.2415798152000E-02
    77  7.6000000000000E-01 -1.2165193007000E+00  7.7748368234000E-02
    78  7.7000000000000E-01 -1.2096469168000E+00  6.2128831400000E-02
    79  7.8000000000000E-01 -1.2019506502000E+00  4.5559058827000E-02
    80  7.9000000000000E-01 -1.1934359119000E+00  2.8043518864000E-02
    81  8.0000000000000E-01 -1.1841093205000E+00  9.5893182160000E-03
    82  8.1000000000000E-01 -1.1739787120000E+00 -9.7937649885000E-03
    83  8.2000000000000E-01 -1.1630531462000E+00 -3.0093256506000E-02
    84  8.3000000000000E-01 -1.1513429105000E+00 -5.1293969895000E-02
    85  8.4000000000000E-01 -1.1388595205000E+00 -7.3377999255000E-02
    86  8.5000000000000E-01 -1.1256157169000E+00 -9.6324720960000E-02
    87  8.6000000000000E-01 -1.1116254597000E+00 -1.2011080456000E-01
    88  8.7000000000000E-01 -1.0969039193000E+00 -1.4471023298000E-01
    89  8.8000000000000E-01 -1.0814674634000E+00 -1.7009433208000E-01
    90  8.9000000000000E-01 -1.0653336414000E+00 -1.9623180969000E-01
    91  9.0000000000000E-01 -1.0485211652000E+00 -2.2308880416000E-01
    92  9.1000000000000E-01 -1.0310498865000E+00 -2.5062894236000E-01
    93  9.2000000000000E-01 -1.0129407705000E+00 -2.7881340718000E-01
    94  9.3000000000000E-01 -9.9421586705000E-01 -3.0760101428000E-01
    95  9.4000000000000E-01 -9.7489827778000E-01 -3.3694829811000E-01
    96  9.5000000000000E-01 -9.5501212023000E-01 -3.6680960688000E-01
    97  9.6000000000000E-01 -9.3458249090000E-01 -3.9713720325000E-01
    98  9.7000000000000E-01 -9.1363542146000E-01 -4.2788137472000E-01
    99  9.8000000000000E-01 -8.9219783132000E-01 -4.5899056526000E-01
   100  9.9000000000000E-01 -8.7029748087000E-01 -4.9041149980000E-01
   101  1.0000000000000E+00 -8.4796292028000E-01 -5.2208932067000E-01
   102  1.0100000000000E+00 -8.2522343591000E-01 -5.5396773097000E-01
   103  1.0200000000000E+00 -8.0210899662000E-01 -5.8598913815000E-01
   104  1.0300000000000E+00 -7.7865021432000E-01 -6.1809476189000E-01
   105  1.0400000000000E+00 -7.5487822012000E-01 -6.5022495403000E-01
   106  1.0500000000000E+00 -7.3082465536000E-01 -6.8231923250000E-01
   107  1.0600000000000E+00 -7.0652159178000E-01 -7.1431648951000E-01
   108  1.0700000000000E+00 -6.8200146781000E-01 -7.4615516003000E-01
   109  1.0800000000000E+00 -6.5729707944000E-01 -7.7777324913000E-01
   110  1.0900000000000E+00 -6.3244133108000E-01 -8.0910897577000E-01
   111  1.1000000000000E+00 -6.0746732307000E-01 -8.4010055151000E-01
   112  1.1100000000000E+00 -5.8240823844000E-01 -8.7068647225000E-01
   113  1.1200000000000E+00 -5.5729735219000E-01 -9.0080549493000E-01
   114  1.1300000000000E+00 -5.3216775660000E-01 -9.3039734381000E-01
   115  1.1400000000000E+00 -5.0705238949000E-01 -9.5940263441000E-01
   116  1.1500000000000E+00 -4.8198400810000E-01 -9.8776293642000E-01
   117  1.1600000000000E+00 -4.5699523563000E-01 -1.0154206534000E+00
   118  1.1700000000000E+00 -4.3211806832000E-01 -1.0423202750000E+00
   119  1.1800000000000E+00 -4.0738412708000E-01 -1.0684077228000E+00
   120  1.1900000000000E+00 -3.8282463716000E-01 -1.0936303964000E+00
   121  1.2000000000000E+00 -3.5847026892000E-01 -1.1179375720000E+00
   122  1.2100000000000E+00 -3.3435076107000E-01 -1.1412813291000E+00
   123  1.2200000000000E+00 -3.1049529985000E-01 -1.1636155809000E+00
   124  1.2300000000000E+00 -2.8693258428000E-01 -1.1848959158000E+00
   125  1.2400000000000E+00 -2.6368986408000E-01 -1.2050819514000E+00
   126  1.2500000000000E+00 -2.4079374570000E-01 -1.2241353100000E+00
   127  1.2600000000000E+00 -2.1827023349000E-01 -1.2420195325000E+00
   128  1.2700000000000E+00 -1.9614364013000E-01 -1.2587026804000E+00
   129  1.2800000000000E+00 -1.7443744328000E-01 -1.2741552166000E+00
   130  1.2900000000000E+00 -1.5317447038000E-01 -1.2883495915000E+00
   131  1.3000000000000E+00 -1.3237553485000E-01 -1.3012633966000E+00
   132  1.3100000000000E+00 -1.1206064366000E-01 -1.3128764739000E+00
   133  1.3200000000000E+00 -9.2248924627000E-02 -1.3231711280000E+00
   134  1.3300000000000E+00 -7.2957341695000E-02 -1.3321349361000E+00
   135  1.3400000000000E+00 -5.4202205999000E-02 -1.3397573066000E+00
   136  1.3500000000000E+00 -3.5998405065000E-02 -1.3460312098000E+00
   137  1.3600000000000E+00 -1.8358944422000E-02 -1.3509539981000E+00
   138  1.3700000000000E+00 -1.2962666657000E-03 -1.3545246372000E+00
   139  1.3800000000000E+00  1.5179337789000E-02 -1.3567469209000E+00
   140  1.3900000000000E+00  3.1058724634000E-02 -1.3576272592000E+00
   141  1.4000000000000E+00  4.6333717223000E-02 -1.3571744571000E+00
   142  1.4100000000000E+00  6.0998439623000E-02 -1.3554019283000E+00
   143  1.4200000000000E+00  7.5047441324000E-02 -1.3523243237000E+00
   144  1.4300000000000E+00  8.8477335738000E-02 -1.3479602771000E+00
   145  1.4400000000000E+00  1.0128582943000E-01 -1.3423305122000E+00
   146  1.4500000000000E+00  1.1347167268000E-01 -1.3354580011000E+00
   147  1.4600000000000E+00  1.2503555979000E-01 -1.3273686057000E+00
   148  1.4700000000000E+00  1.3597853068000E-01 -1.3180894323000E+00
   149  1.4800000000000E+00  1.4630370501000E-01 -1.3076500942000E+00
   150  1.4900000000000E+00  1.5601466352000E-01 -1.2960812618000E+00
   151  1.5000000000000E+00  1.6511641280000E-01 -1.2834152288000E+00
   152  1.5100000000000E+00  1.7361485783000E-01 -1.2696848781000E+00
   153  1.5200000000000E+00  1.8151675577000E-01 -1.2549245071000E+00
   154  1.5300000000000E+00  1.8882989366000E-01 -1.2391675079000E+00
   155  1.5400000000000E+00  1.9556262346000E-01 -1.2224493752000E+00
   156  1.5500000000000E+00  2.0172411649000E-01 -1.2048024229000E+00
   157  1.5600000000000E+00  2.0732408152000E-01 -1.1862614927000E+00
   158  1.5700000000000E+00  2.1237260175000E-01 -1.1668568605000E+00
   159  1.5800000000000E+00  2.1688034115000E-01 -1.1466210883000E+00
   160  1.5900000000000E+00  2.2085828441000E-01 -1.1255858034000E+00
   161  1.6000000000000E+00  2.2431800420000E-01 -1.1037848755000E+00
   162  1.6100000000000E+00  2.2727157165000E-01 -1.0812546238000E+00
   163  1.6200000000000E+00  2.2973154973000E-01 -1.0580328938000E+00
   164  1.6300000000000E+00  2.3171100775000E-01 -1.0341595855000E+00
   165  1.6400000000000E+00  2.3322341834000E-01 -1.0096760060000E+00
   166  1.6500000000000E+00  2.3428276391000E-01 -9.8462508041000E-01
   167  1.6600000000000E+00  2.3490331730000E-01 -9.5905081602000E-01
   168  1.6700000000000E+00  2.3509987336000E-01 -9.3299862736000E-01
   169  1.6800000000000E+00  2.3488738685000E-01 -9.0651448737000E-01
   170  1.6900000000000E+00  2.3428134193000E-01 -8.7964568764000E-01
   171  1.7000000000000E+00  2.3329725549000E-01 -8.5243949244000E-01
   172  1.7100000000000E+00  2.3195115472000E-01 -8.2494438827000E-01
   173  1.7200000000000E+00  2.3025900454000E-01 -7.9720833871000E-01
   174  1.7300000000000E+00  2.2823720575000E-01 -7.6928028153000E-01
   175  1.7400000000000E+00  2.2590206927000E-01 -7.4120838491000E-01
   176  1.7500000000000E+00  2.2327017751000E-01 -7.1304124143000E-01
   177  1.7600000000000E+00  2.2035810261000E-01 -6.8482683412000E-01
   178  1.7700000000000E+00  2.1718239585000E-01 -6.5661257309000E-01
   179  1.7800000000000E+00  2.1375982573000E-01 -6.2844596979000E-01
   180  1.7900000000000E+00  2.1010668297000E-01 -6.0037239263000E-01
   181  1.8000000000000E+00  2.0623988684000E-01 -5.7243868451000E-01
   182  1.8100000000000E+00  2.0217522902000E-01 -5.4468732153000E-01
   183  1.8200000000000E+00  1.9792974736000E-01 -5.1716434031000E-01
   184  1.8300000000000E+00  1.9351853892000E-01 -4.8990866051000E-01
   185  1.8400000000000E+00  1.8895861173000E-01 -4.6296499086000E-01
   186  1.8500000000000E+00  1.8426446173000E-01 -4.3636903539000E-01
   187  1.8600000000000E+00  1.7945241511000E-01 -4.1016198989000E-01
   188  1.8700000000000E+00  1.7453681629000E-01 -3.8437788170000E-01
   189  1.8800000000000E+00  1.6953288081000E-01 -3.5905300525000E-01
   190  1.8900000000000E+00  1.6445488850000E-01 -3.3422001593000E-01
   191  1.9000000000000E+00  1.5931665746000E-01 -3.0990945321000E-01
   192  1.9100000000000E+00  1.5413248102000E-01 -2.8615284880000E-01
   193  1.9200000000000E+00  1.4891454398000E-01 -2.6297436337000E-01
   194  1.9300000000000E+00  1.4367718204000E-01 -2.4040446284000E-01
   195  1.9400000000000E+00  1.3843121377000E-01 -2.1846193227000E-01
   196  1.9500000000000E+00  1.3318973124000E-01 -1.9717213120000E-01
   197  1.9600000000000E+00  1.2796345133000E-01 -1.7655253861000E-01
   198  1.9700000000000E+00  1.2276348686000E-01 -1.5662127678000E-01
   199  1.9800000000000E+00  1.1760069955000E-01 -1.3739522705000E-01
   200  1.9900000000000E+00  1.1248399593000E-01 -1.1888486448000E-01
   201  2.0000000000000E+00  1.0742442108000E-01 -1.0110647356000E-01
   202  2.0100000000000E+00  1.0242920174000E-01 -8.4064709817000E-02
   203  2.0200000000000E+00  9.7507800067000E-02 -6.7770140272000E-02
   204  2.0300000000000E+00  9.2667581915000E-02 -5.2226967960000E-02
   205  2.0400000000000E+00  8.7915571693000E-02 -3.7437908814000E-02
   206  2.0500000000000E+00  8.3259511193000E-02 -2.3407191118000E-02
   207  2.0600000000000E+00  7.8704275109000E-02 -1.0130903174000E-02
   208  2.0700000000000E+00  7.4256863858000E-02  2.3898142849000E-03
   209  2.0800000000000E+00  6.9921543093000E-02  1.4161176798000E-02
   210  2.0900000000000E+00  6.5703054401000E-02  2.5188739466000E-02
   211  2.1000000000000E+00  6.1606199267000E-02  3.5478312934000E-02
   212  2.1100000000000E+00  5.7633465214000E-02  4.5041569713000E-02
   213  2.1200000000000E+00  5.3789195904000E-02  5.3886513400000E-02
   214  2.1300000000000E+00  5.0075162193000E-02  6.2027030453000E-02
   215  2.1400000000000E+00  4.6493577920000E-02  6.9476611069000E-02
   216  2.1500000000000E+00  4.3046838958000E-02  7.6248789011000E-02
   217  2.1600000000000E+00  3.9735160551000E-02  8.2361537359000E-02
   218  2.1700000000000E+00  3.6560253250000E-02  8.7830805832000E-02
   219  2.1800000000000E+00  3.3522048005000E-02  9.2675606855000E-02
   220  2.1900000000000E+00  3.0620264959000E-02  9.6915768896000E-02
   221  2.2000000000000E+00  2.7855397889000E-02  1.0057069355000E-01
   222  2.2100000000000E+00  2.5225721297000E-02  1.0366240872000E-01
   223  2.2200000000000E+00  2.2730563468000E-02  1.0621266635000E-01
   224  2.2300000000000E+00  2.0368553403000E-02  1.0824392019000E-01
   225  2.2400000000000E+00  1.8137442739000E-02  1.0977937110000E-01
   226  2.2500000000000E+00  1.6035779360000E-02  1.1084306019000E-01
   227  2.2600000000000E+00  1.4060802327000E-02  1.1145850696000E-01
   228  2.2700000000000E+00  1.2209854281000E-02  1.1165003387000E-01
   229  2.2800000000000E+00  1.0480512554000E-02  1.1144316684000E-01
   230  2.2900000000000E+00  8.8692994214000E-03  1.1086117046000E-01
   231  2.3000000000000E+00  7.3731040488000E-03  1.0992962155000E-01
   232  2.3100000000000E+00  5.9885892844000E-03  1.0867354370000E-01
   233  2.3200000000000E+00  4.7120019729000E-03  1.0711595919000E-01
   234  2.3300000000000E+00  3.5396976649000E-03  1.0528319677000E-01
   235  2.3400000000000E+00  2.4678327882000E-03  1.0319832854000E-01
   236  2.3500000000000E+00  1.4924433068000E-03  1.0088387050000E-01
   237  2.3600000000000E+00  6.0942073668000E-04  9.8366373539000E-02
   238  2.3700000000000E+00 -1.8522122779000E-04  9.5665865279000E-02
   239  2.3800000000000E+00 -8.9560780817000E-04  9.2804196942000E-02
   240  2.3900000000000E+00 -1.5261794884000E-03  8.9807093997000E-02
   241  2.4000000000000E+00 -2.0808026726000E-03  8.6691269233000E-02
   242  2.4100000000000E+00 -2.5637438744000E-03  8.3477914184000E-02
   243  2.4200000000000E+00 -2.9794743578000E-03  8.0189764813000E-02
   244  2.4300000000000E+00 -3.3317028738000E-03  7.6841403808000E-02
   245  2.4400000000000E+00 -3.6247157562000E-03  7.3452380243000E-02
   246  2.4500000000000E+00 -3.8628179216000E-03  7.0042038329000E-02
   247  2.4600000000000E+00 -4.0494843263000E-03  6.6622602461000E-02
   248  2.4700000000000E+00 -4.1889056079000E-03  6.3211487754000E-02
   249  2.4800000000000E+00 -4.2850905685000E-03  5.9824557245000E-02
   250  2.4900000000000E+00 -4.3412037731000E-03  5.6471463735000E-02
   251  2.5000000000000E+00 -4.3612207700000E-03  5.3167041580000E-02
   252  2.5100000000000E+00 -4.3487858275000E-03  4.9923829385000E-02
   253  2.5200000000000E+00 -4.3066823298000E-03  4.6748754967000E-02
   254  2.5300000000000E+00 -4.2385572918000E-03  4.3653716376000E-02
   255  2.5400000000000E+00 -4.1476755234000E-03  4.0648263797000E-02
   256  2.5500000000000E+00 -4.0363763944000E-03  3.7736528539000E-02
   257  2.5600000000000E+00 -3.9078767688000E-03  3.4927236380000E-02
   258  2.5700000000000E+00 -3.7650861560000E-03  3.2227375629000E-02
   259  2.5800000000000E+00 -3.6098523862000E-03  2.9638329633000E-02
   260  2.5900000000000E+00 -3.4448797151000E-03  2.7165569203000E-02
   261  2.6000000000000E+00 -3.2727694693000E-03  2.4813947189000E-02
   262  2.6100000000000E+00 -3.0948518728000E-03  2.2582295145000E-02
   263  2.6200000000000E+00 -2.9132619576000E-03  2.0472929162000E-02
   264  2.6300000000000E+00 -2.7303449802000E-03  1.8488902036000E-02
   265  2.6400000000000E+00 -2.5469146307000E-03  1.6626856130000E-02
   266  2.6500000000000E+00 -2.3645121963000E-03  1.4886260367000E-02
   267  2.6600000000000E+00 -2.1852662354000E-03  1.3268534327000E-02
   268  2.6700000000000E+00 -2.0095059381000E-03  1.1768662485000E-02
   269  2.6800000000000E+00 -1.8382743682000E-03  1.0384024810000E-02
   270  2.6900000000000E+00 -1.6732461844000E-03  9.1136643890000E-03
   271  2.7000000000000E+00 -1.5145787806000E-03  7.9522813444000E-03
   272  2.7100000000000E+00 -1.3628291897000E-03  6.8955905975000E-03
   273  2.7200000000000E+00 -1.2190631672000E-03  5.9402337549000E-03
   274  2.7300000000000E+00 -1.0834888145000E-03  5.0811681637000E-03
   275  2.7400000000000E+00 -9.5618429886000E-04  4.3130158498000E-03
   276  2.7500000000000E+00 -8.3765876369000E-04  3.6308138072000E-03
   277  2.7600000000000E+00 -7.2817085631000E-04  3.0293758596000E-03
   278  2.7700000000000E+00 -6.2741467335000E-04  2.5031267363000E-03
   279  2.7800000000000E+00 -5.3543270544000E-04  2.0464841717000E-03
   280  2.7900000000000E+00 -4.5248074176000E-04  1.6534546132000E-03
   281  2.8000000000000E+00 -3.7798475801000E-04  1.3191847069000E-03
   282  2.8100000000000E+00 -3.1170174044000E-04  1.0382347314000E-03
   283  2.8200000000000E+00 -2.5360583383000E-04  8.0400383820000E-04
   284  2.8300000000000E+00 -2.0316448853000E-04  6.1223288841000E-04
   285  2.8400000000000E+00 -1.5989550044000E-04  4.5830884977000E-04
   286  2.8500000000000E+00 -1.2345136048000E-04  3.3636907101000E-04
   287  2.8600000000000E+00 -9.3391472918000E-05  2.4142531949000E-04
   288  2.8700000000000E+00 -6.9064009916000E-05  1.7066949021000E-04
   289  2.8800000000000E+00 -4.9918462074000E-05  1.2001938990000E-04
   290  2.8900000000000E+00 -3.5496876376000E-05  8.2896887980000E-05
   291  2.9000000000000E+00 -2.5076478979000E-05  5.8840535819000E-05
   292  2.9100000000000E+00 -1.8023749045000E-05  4.4972557222000E-05
   293  2.9200000000000E+00 -1.3842553396000E-05  3.7486928186000E-05
   294  2.9300000000000E+00 -1.1788751294000E-05  3.3966623605000E-05
   295  2.9400000000000E+00 -1.0937716176000E-05  3.2978978677000E-05
   296  2.9500000000000E+00 -1.0375136998000E-05  3.2009066035000E-05
   297  2.9600000000000E+00 -7.2695114936000E-06  2.2854970470000E-05
   298  2.9700000000000E+00 -4.0989053428000E-06  1.3075311862000E-05
   299  2.9800000000000E+00 -1.2155857467000E-06  3.9226191614000E-06
   300  2.9900000000000E+00  4.0805079569000E-07 -1.2577363777000E-06
   301  3.0000000000000E+00  7.0272410336000E-07 -2.1660089323000E-06
   302  3.0100000000000E+00  5.0251566348000E-07 -1.5489057662000E-06
   303  3.0200000000000E+00  4.0619502924000E-08 -1.2520163424000E-07
   304  3.0300000000000E+00  0.0000000000000E+00  0.0000000000000E+00
   305  3.0400000000000E+00  0.0000000000000E+00  0.0000000000000E+00
   306  3.0500000000000E+00  0.0000000000000E+00  0.0000000000000E+00
   307  3.0600000000000E+00  0.0000000000000E+00  0.0000000000000E+00
   308  3.0700000000000E+00  0.0000000000000E+00  0.0000000000000E+00
   309  3.0800000000000E+00  0.0000000000000E+00  0.0000000000000E+00
   310  3.0900000000000E+00  0.0000000000000E+00  0.0000000000000E+00
   311  3.1000000000000E+00  0.0000000000000E+00  0.0000000000000E+00
   312  3.1100000000000E+00  0.0000000000000E+00  0.0000000000000E+00
   313  3.1200000000000E+00  0.0000000000000E+00  0.0000000000000E+00
   314  3.1300000000000E+00  0.0000000000000E+00  0.0000000000000E+00
   315  3.1400000000000E+00  0.0000000000000E+00  0.0000000000000E+00
   316  3.1500000000000E+00  0.0000000000000E+00  0.0000000000000E+00
   317  3.1600000000000E+00  0.0000000000000E+00  0.0000000000000E+00
   318  3.1700000000000E+00  0.0000000000000E+00  0.0000000000000E+00
   319  3.1800000000000E+00  0.0000000000000E+00  0.0000000000000E+00
   320  3.1900000000000E+00  0.0000000000000E+00  0.0000000000000E+00
   321  3.2000000000000E+00  0.0000000000000E+00  0.0000000000000E+00
   322  3.2100000000000E+00  0.0000000000000E+00  0.0000000000000E+00
   323  3.2200000000000E+00  0.0000000000000E+00  0.0000000000000E+00
   324  3.2300000000000E+00  0.0000000000000E+00  0.0000000000000E+00
   325  3.2400000000000E+00  0.0000000000000E+00  0.0000000000000E+00
   326  3.2500000000000E+00  0.0000000000000E+00  0.0000000000000E+00
   327  3.2600000000000E+00  0.0000000000000E+00  0.0000000000000E+00
   328  3.2700000000000E+00  0.0000000000000E+00  0.0000000000000E+00
   329  3.2800000000000E+00  0.0000000000000E+00  0.0000000000000E+00
   330  3.2900000000000E+00  0.0000000000000E+00  0.0000000000000E+00
   331  3.3000000000000E+00  0.0000000000000E+00  0.0000000000000E+00
   332  3.3100000000000E+00  0.0000000000000E+00  0.0000000000000E+00
   333  3.3200000000000E+00  0.0000000000000E+00  0.0000000000000E+00
   334  3.3300000000000E+00  0.0000000000000E+00  0.0000000000000E+00
   335  3.3400000000000E+00  0.0000000000000E+00  0.0000000000000E+00
   336  3.3500000000000E+00  0.0000000000000E+00  0.0000000000000E+00
   337  3.3600000000000E+00  0.0000000000000E+00  0.0000000000000E+00
   338  3.3700000000000E+00  0.0000000000000E+00  0.0000000000000E+00
   339  3.3800000000000E+00  0.0000000000000E+00  0.0000000000000E+00
   340  3.3900000000000E+00  0.0000000000000E+00  0.0000000000000E+00
   341  3.4000000000000E+00  0.0000000000000E+00  0.0000000000000E+00
   342  3.4100000000000E+00  0.0000000000000E+00  0.0000000000000E+00
   343  3.4200000000000E+00  0.0000000000000E+00  0.0000000000000E+00
   344  3.4300000000000E+00  0.0000000000000E+00  0.0000000000000E+00
   345  3.4400000000000E+00  0.0000000000000E+00  0.0000000000000E+00
   346  3.4500000000000E+00  0.0000000000000E+00  0.0000000000000E+00
   347  3.4600000000000E+00  0.0000000000000E+00  0.0000000000000E+00
   348  3.4700000000000E+00  0.0000000000000E+00  0.0000000000000E+00
   349  3.4800000000000E+00  0.0000000000000E+00  0.0000000000000E+00
   350  3.4900000000000E+00  0.0000000000000E+00  0.0000000000000E+00
   351  3.5000000000000E+00  0.0000000000000E+00  0.0000000000000E+00
   352  3.5100000000000E+00  0.0000000000000E+00  0.0000000000000E+00
   353  3.5200000000000E+00  0.0000000000000E+00  0.0000000000000E+00
   354  3.5300000000000E+00  0.0000000000000E+00  0.0000000000000E+00
   355  3.5400000000000E+00  0.0000000000000E+00  0.0000000000000E+00
   356  3.5500000000000E+00  0.0000000000000E+00  0.0000000000000E+00
   357  3.5600000000000E+00  0.0000000000000E+00  0.0000000000000E+00
   358  3.5700000000000E+00  0.0000000000000E+00  0.0000000000000E+00
   359  3.5800000000000E+00  0.0000000000000E+00  0.0000000000000E+00
   360  3.5900000000000E+00  0.0000000000000E+00  0.0000000000000E+00
   361  3.6000000000000E+00  0.0000000000000E+00  0.0000000000000E+00
   362  3.6100000000000E+00  0.0000000000000E+00  0.0000000000000E+00
   363  3.6200000000000E+00  0.0000000000000E+00  0.0000000000000E+00
   364  3.6300000000000E+00  0.0000000000000E+00  0.0000000000000E+00
   365  3.6400000000000E+00  0.0000000000000E+00  0.0000000000000E+00
   366  3.6500000000000E+00  0.0000000000000E+00  0.0000000000000E+00
   367  3.6600000000000E+00  0.0000000000000E+00  0.0000000000000E+00
   368  3.6700000000000E+00  0.0000000000000E+00  0.0000000000000E+00
   369  3.6800000000000E+00  0.0000000000000E+00  0.0000000000000E+00
   370  3.6900000000000E+00  0.0000000000000E+00  0.0000000000000E+00
   371  3.7000000000000E+00  0.0000000000000E+00  0.0000000000000E+00
   372  3.7100000000000E+00  0.0000000000000E+00  0.0000000000000E+00
   373  3.7200000000000E+00  0.0000000000000E+00  0.0000000000000E+00
   374  3.7300000000000E+00  0.0000000000000E+00  0.0000000000000E+00
   375  3.7400000000000E+00  0.0000000000000E+00  0.0000000000000E+00
   376  3.7500000000000E+00  0.0000000000000E+00  0.0000000000000E+00
   377  3.7600000000000E+00  0.0000000000000E+00  0.0000000000000E+00
   378  3.7700000000000E+00  0.0000000000000E+00  0.0000000000000E+00
   379  3.7800000000000E+00  0.0000000000000E+00  0.0000000000000E+00
   380  3.7900000000000E+00  0.0000000000000E+00  0.0000000000000E+00
   381  3.8000000000000E+00  0.0000000000000E+00  0.0000000000000E+00
   382  3.8100000000000E+00  0.0000000000000E+00  0.0000000000000E+00
   383  3.8200000000000E+00  0.0000000000000E+00  0.0000000000000E+00
   384  3.8300000000000E+00  0.0000000000000E+00  0.0000000000000E+00
   385  3.8400000000000E+00  0.0000000000000E+00  0.0000000000000E+00
   386  3.8500000000000E+00  0.0000000000000E+00  0.0000000000000E+00
   387  3.8600000000000E+00  0.0000000000000E+00  0.0000000000000E+00
   388  3.8700000000000E+00  0.0000000000000E+00  0.0000000000000E+00
   389  3.8800000000000E+00  0.0000000000000E+00  0.0000000000000E+00
   390  3.8900000000000E+00  0.0000000000000E+00  0.0000000000000E+00
   391  3.9000000000000E+00  0.0000000000000E+00  0.0000000000000E+00
   392  3.9100000000000E+00  0.0000000000000E+00  0.0000000000000E+00
   393  3.9200000000000E+00  0.0000000000000E+00  0.0000000000000E+00
   394  3.9300000000000E+00  0.0000000000000E+00  0.0000000000000E+00
   395  3.9400000000000E+00  0.0000000000000E+00  0.0000000000000E+00
   396  3.9500000000000E+00  0.0000000000000E+00  0.0000000000000E+00
   397  3.9600000000000E+00  0.0000000000000E+00  0.0000000000000E+00
   398  3.9700000000000E+00  0.0000000000000E+00  0.0000000000000E+00
   399  3.9800000000000E+00  0.0000000000000E+00  0.0000000000000E+00
   400  3.9900000000000E+00  0.0000000000000E+00  0.0000000000000E+00
   401  4.0000000000000E+00  0.0000000000000E+00  0.0000000000000E+00
   402  4.0100000000000E+00  0.0000000000000E+00  0.0000000000000E+00
   403  4.0200000000000E+00  0.0000000000000E+00  0.0000000000000E+00
   404  4.0300000000000E+00  0.0000000000000E+00  0.0000000000000E+00
   405  4.0400000000000E+00  0.0000000000000E+00  0.0000000000000E+00
   406  4.0500000000000E+00  0.0000000000000E+00  0.0000000000000E+00
   407  4.0600000000000E+00  0.0000000000000E+00  0.0000000000000E+00
   408  4.0700000000000E+00  0.0000000000000E+00  0.0000000000000E+00
   409  4.0800000000000E+00  0.0000000000000E+00  0.0000000000000E+00
   410  4.0900000000000E+00  0.0000000000000E+00  0.0000000000000E+00
   411  4.1000000000000E+00  0.0000000000000E+00  0.0000000000000E+00
   412  4.1100000000000E+00  0.0000000000000E+00  0.0000000000000E+00
   413  4.1200000000000E+00  0.0000000000000E+00  0.0000000000000E+00
   414  4.1300000000000E+00  0.0000000000000E+00  0.0000000000000E+00
   415  4.1400000000000E+00  0.0000000000000E+00  0.0000000000000E+00
   416  4.1500000000000E+00  0.0000000000000E+00  0.0000000000000E+00
   417  4.1600000000000E+00  0.0000000000000E+00  0.0000000000000E+00
   418  4.1700000000000E+00  0.0000000000000E+00  0.0000000000000E+00
   419  4.1800000000000E+00  0.0000000000000E+00  0.0000000000000E+00
   420  4.1900000000000E+00  0.0000000000000E+00  0.0000000000000E+00
   421  4.2000000000000E+00  0.0000000000000E+00  0.0000000000000E+00
   422  4.2100000000000E+00  0.0000000000000E+00  0.0000000000000E+00
   423  4.2200000000000E+00  0.0000000000000E+00  0.0000000000000E+00