Se   ONCVPSP-2.1.1   r_core=    2.63348 2.72943 3.34304
    34.0000   6.0000   150415   zatom,zion,pspd
    8   11   2   4   600   0   pspcod,pspxc,lmax,lloc,mmax,r2well
    5.99000000   0.00000000   0.00000000   rchrg fchrg qchrg
    2   2   2   0   0   nproj
    1   1   extension_switch
       0                         6.2764599035000E+00  3.8305960096000E-01
     1  0.0000000000000E+00  0.0000000000000E+00  0.0000000000000E+00
     2  1.0000000000000E-02  3.0955548427000E-02  1.6496780823000E-02
     3  2.0000000000000E-02  6.1902320723000E-02  3.2984753565000E-02
     4  3.0000000000000E-02  9.2831482115000E-02  4.9455002561000E-02
     5  4.0000000000000E-02  1.2373408089000E-01  6.5898397705000E-02
     6  5.0000000000000E-02  1.5460099083000E-01  8.2305489056000E-02
     7  6.0000000000000E-02  1.8542285461000E-01  9.8666403640000E-02
     8  7.0000000000000E-02  2.1619002875000E-01  1.1497074513000E-01
     9  8.0000000000000E-02  2.4689253007000E-01  1.3120749712000E-01
    10  9.0000000000000E-02  2.7751998442000E-01  1.4736493071000E-01
    11  1.0000000000000E-01  3.0806157763000E-01  1.6343051694000E-01
    12  1.1000000000000E-01  3.3850600919000E-01  1.7939084487000E-01
    13  1.2000000000000E-01  3.6884144893000E-01  1.9523154576000E-01
    14  1.3000000000000E-01  3.9905549689000E-01  2.1093722404000E-01
    15  1.4000000000000E-01  4.2913514678000E-01  2.2649139555000E-01
    16  1.5000000000000E-01  4.5906675316000E-01  2.4187643355000E-01
    17  1.6000000000000E-01  4.8883600263000E-01  2.5707352296000E-01
    18  1.7000000000000E-01  5.1842788925000E-01  2.7206262338000E-01
    19  1.8000000000000E-01  5.4782669434000E-01  2.8682244101000E-01
    20  1.9000000000000E-01  5.7701597091000E-01  3.0133041010000E-01
    21  2.0000000000000E-01  6.0597853271000E-01  3.1556268398000E-01
    22  2.1000000000000E-01  6.3469644831000E-01  3.2949413603000E-01
    23  2.2000000000000E-01  6.6315104000000E-01  3.4309837081000E-01
    24  2.3000000000000E-01  6.9132288777000E-01  3.5634774528000E-01
    25  2.4000000000000E-01  7.1919183848000E-01  3.6921340046000E-01
    26  2.5000000000000E-01  7.4673702006000E-01  3.8166530341000E-01
    27  2.6000000000000E-01  7.7393686094000E-01  3.9367229947000E-01
    28  2.7000000000000E-01  8.0076911458000E-01  4.0520217475000E-01
    29  2.8000000000000E-01  8.2721088913000E-01  4.1622172876000E-01
    30  2.9000000000000E-01  8.5323868215000E-01  4.2669685699000E-01
    31  3.0000000000000E-01  8.7882842015000E-01  4.3659264291000E-01
    32  3.1000000000000E-01  9.0395550316000E-01  4.4587345969000E-01
    33  3.2000000000000E-01  9.2859485396000E-01  4.5450308101000E-01
    34  3.3000000000000E-01  9.5272097172000E-01  4.6244479990000E-01
    35  3.4000000000000E-01  9.7630798987000E-01  4.6966155577000E-01
    36  3.5000000000000E-01  9.9932973920000E-01  4.7611607132000E-01
    37  3.6000000000000E-01  1.0217598129000E+00  4.8177099231000E-01
    38  3.7000000000000E-01  1.0435716374000E+00  4.8658903804000E-01
    39  3.8000000000000E-01  1.0647385457000E+00  4.9053315683000E-01
    40  3.9000000000000E-01  1.0852338533000E+00  4.9356668426000E-01
    41  4.0000000000000E-01  1.1050309379000E+00  4.9565350868000E-01
    42  4.1000000000000E-01  1.1241033211000E+00  4.9675823954000E-01
    43  4.2000000000000E-01  1.1424247538000E+00  4.9684638131000E-01
    44  4.3000000000000E-01  1.1599693010000E+00  4.9588450509000E-01
    45  4.4000000000000E-01  1.1767114296000E+00  4.9384042520000E-01
    46  4.5000000000000E-01  1.1926260968000E+00  4.9068337340000E-01
    47  4.6000000000000E-01  1.2076888417000E+00  4.8638418040000E-01
    48  4.7000000000000E-01  1.2218758738000E+00  4.8091544746000E-01
    49  4.8000000000000E-01  1.2351641637000E+00  4.7425172089000E-01
    50  4.9000000000000E-01  1.2475315327000E+00  4.6636966260000E-01
    51  5.0000000000000E-01  1.2589567372000E+00  4.5724820731000E-01
    52  5.1000000000000E-01  1.2694195696000E+00  4.4686875231000E-01
    53  5.2000000000000E-01  1.2789009347000E+00  4.3521529312000E-01
    54  5.3000000000000E-01  1.2873829262000E+00  4.2227455987000E-01
    55  5.4000000000000E-01  1.2948489371000E+00  4.0803621649000E-01
    56  5.5000000000000E-01  1.3012837063000E+00  3.9249293158000E-01
    57  5.6000000000000E-01  1.3066734211000E+00  3.7564055772000E-01
    58  5.7000000000000E-01  1.3110057745000E+00  3.5747821730000E-01
    59  5.8000000000000E-01  1.3142700475000E+00  3.3800843616000E-01
    60  5.9000000000000E-01  1.3164571599000E+00  3.1723721281000E-01
    61  6.0000000000000E-01  1.3175597580000E+00  2.9517415218000E-01
    62  6.1000000000000E-01  1.3175722260000E+00  2.7183246013000E-01
    63  6.2000000000000E-01  1.3164908009000E+00  2.4722911449000E-01
    64  6.3000000000000E-01  1.3143135641000E+00  2.2138481778000E-01
    65  6.4000000000000E-01  1.3110405007000E+00  1.9432406484000E-01
    66  6.5000000000000E-01  1.3066735593000E+00  1.6607520073000E-01
    67  6.6000000000000E-01  1.3012166486000E+00  1.3667037402000E-01
    68  6.7000000000000E-01  1.2946756610000E+00  1.0614553121000E-01
    69  6.8000000000000E-01  1.2870585313000E+00  7.4540451076000E-02
    70  6.9000000000000E-01  1.2783752077000E+00  4.1898648114000E-02
    71  7.0000000000000E-01  1.2686376687000E+00  8.2673353345000E-03
    72  7.1000000000000E-01  1.2578599166000E+00 -2.6302648543000E-02
    73  7.2000000000000E-01  1.2460579841000E+00 -6.1756908400000E-02
    74  7.3000000000000E-01  1.2332499122000E+00 -9.8037604319000E-02
    75  7.4000000000000E-01  1.2194557224000E+00 -1.3508357175000E-01
    76  7.5000000000000E-01  1.2046973931000E+00 -1.7283044859000E-01
    77  7.6000000000000E-01  1.1889988242000E+00 -2.1121082137000E-01
    78  7.7000000000000E-01  1.1723857962000E+00 -2.5015438620000E-01
    79  7.8000000000000E-01  1.1548859222000E+00 -2.8958812422000E-01
    80  7.9000000000000E-01  1.1365285928000E+00 -3.2943648453000E-01
    81  8.0000000000000E-01  1.1173449183000E+00 -3.6962160417000E-01
    82  8.1000000000000E-01  1.0973676579000E+00 -4.1006351009000E-01
    83  8.2000000000000E-01  1.0766311490000E+00 -4.5068034993000E-01
    84  8.3000000000000E-01  1.0551712289000E+00 -4.9138863183000E-01
    85  8.4000000000000E-01  1.0330251507000E+00 -5.3210347484000E-01
    86  8.5000000000000E-01  1.0102314950000E+00 -5.7273886924000E-01
    87  8.6000000000000E-01  9.8683007552000E-01 -6.1320794615000E-01
    88  8.7000000000000E-01  9.6286184067000E-01 -6.5342325533000E-01
    89  8.8000000000000E-01  9.3836877095000E-01 -6.9329705030000E-01
    90  8.9000000000000E-01  9.1339377199000E-01 -7.3274157967000E-01
    91  9.0000000000000E-01  8.8798056574000E-01 -7.7166937852000E-01
    92  9.1000000000000E-01  8.6217358658000E-01 -8.0999353721000E-01
    93  9.2000000000000E-01  8.3601783314000E-01 -8.4762811381000E-01
    94  9.3000000000000E-01  8.0955877790000E-01 -8.8448833835000E-01
    95  9.4000000000000E-01  7.8284223736000E-01 -9.2049095041000E-01
    96  9.5000000000000E-01  7.5591424926000E-01 -9.5555450495000E-01
    97  9.6000000000000E-01  7.2882094863000E-01 -9.8959967589000E-01
    98  9.7000000000000E-01  7.0160844331000E-01 -1.0225495560000E+00
    99  9.8000000000000E-01  6.7432268941000E-01 -1.0543299513000E+00
   100  9.9000000000000E-01  6.4700937609000E-01 -1.0848696445000E+00
   101  1.0000000000000E+00  6.1971384898000E-01 -1.1141005499000E+00
   102  1.0100000000000E+00  5.9248080061000E-01 -1.1419585044000E+00
   103  1.0200000000000E+00  5.6535433153000E-01 -1.1683830152000E+00
   104  1.0300000000000E+00  5.3837777543000E-01 -1.1933176703000E+00
   105  1.0400000000000E+00  5.1159358394000E-01 -1.2167103736000E+00
   106  1.0500000000000E+00  4.8504327801000E-01 -1.2385134064000E+00
   107  1.0600000000000E+00  4.5876723823000E-01 -1.2586839014000E+00
   108  1.0700000000000E+00  4.3280449448000E-01 -1.2771842773000E+00
   109  1.0800000000000E+00  4.0719283308000E-01 -1.2939818841000E+00
   110  1.0900000000000E+00  3.8196862713000E-01 -1.3090493450000E+00
   111  1.1000000000000E+00  3.5716692018000E-01 -1.3223642934000E+00
   112  1.1100000000000E+00  3.3282084146000E-01 -1.3339106509000E+00
   113  1.1200000000000E+00  3.0896187978000E-01 -1.3436778530000E+00
   114  1.1300000000000E+00  2.8561981849000E-01 -1.3516609090000E+00
   115  1.1400000000000E+00  2.6282283246000E-01 -1.3578601273000E+00
   116  1.1500000000000E+00  2.4059683602000E-01 -1.3622823856000E+00
   117  1.1600000000000E+00  2.1896580373000E-01 -1.3649402639000E+00
   118  1.1700000000000E+00  1.9795182410000E-01 -1.3658518282000E+00
   119  1.1800000000000E+00  1.7757523943000E-01 -1.3650403222000E+00
   120  1.1900000000000E+00  1.5785362408000E-01 -1.3625358231000E+00
   121  1.2000000000000E+00  1.3880276698000E-01 -1.3583732260000E+00
   122  1.2100000000000E+00  1.2043660840000E-01 -1.3525923441000E+00
   123  1.2200000000000E+00  1.0276655597000E-01 -1.3452387819000E+00
   124  1.2300000000000E+00  8.5801825498000E-02 -1.3363630126000E+00
   125  1.2400000000000E+00  6.9549861899000E-02 -1.3260197266000E+00
   126  1.2500000000000E+00  5.4015823931000E-02 -1.3142683173000E+00
   127  1.2600000000000E+00  3.9202489857000E-02 -1.3011723404000E+00
   128  1.2700000000000E+00  2.5111017507000E-02 -1.2867987208000E+00
   129  1.2800000000000E+00  1.1740410794000E-02 -1.2712179947000E+00
   130  1.2900000000000E+00 -9.1258018955000E-04 -1.2545033535000E+00
   131  1.3000000000000E+00 -1.2852644907000E-02 -1.2367305320000E+00
   132  1.3100000000000E+00 -2.4086559170000E-02 -1.2179773287000E+00
   133  1.3200000000000E+00 -3.4622941429000E-02 -1.1983222475000E+00
   134  1.3300000000000E+00 -4.4471692115000E-02 -1.1778457433000E+00
   135  1.3400000000000E+00 -5.3644644818000E-02 -1.1566274679000E+00
   136  1.3500000000000E+00 -6.2154897597000E-02 -1.1347462597000E+00
   137  1.3600000000000E+00 -7.0016785593000E-02 -1.1122823841000E+00
   138  1.3700000000000E+00 -7.7246034556000E-02 -1.0893103508000E+00
   139  1.3800000000000E+00 -8.3859242299000E-02 -1.0659049048000E+00
   140  1.3900000000000E+00 -8.9874063238000E-02 -1.0421372152000E+00
   141  1.4000000000000E+00 -9.5308666277000E-02 -1.0180711043000E+00
   142  1.4100000000000E+00 -1.0018221659000E-01 -9.9377166267000E-01
   143  1.4200000000000E+00 -1.0451378349000E-01 -9.6929023242000E-01
   144  1.4300000000000E+00 -1.0832300245000E-01 -9.4467655884000E-01
   145  1.4400000000000E+00 -1.1162959497000E-01 -9.1997153194000E-01
   146  1.4500000000000E+00 -1.1445256277000E-01 -8.9520332536000E-01
   147  1.4600000000000E+00 -1.1681166651000E-01 -8.7039743213000E-01
   148  1.4700000000000E+00 -1.1872515291000E-01 -8.4556951236000E-01
   149  1.4800000000000E+00 -1.2021231352000E-01 -8.2073745543000E-01
   150  1.4900000000000E+00 -1.2129173687000E-01 -7.9592087483000E-01
   151  1.5000000000000E+00 -1.2198235299000E-01 -7.7114022746000E-01
   152  1.5100000000000E+00 -1.2230310294000E-01 -7.4641730653000E-01
   153  1.5200000000000E+00 -1.2227247732000E-01 -7.2177473141000E-01
   154  1.5300000000000E+00 -1.2190965679000E-01 -6.9723572614000E-01
   155  1.5400000000000E+00 -1.2123263748000E-01 -6.7282391974000E-01
   156  1.5500000000000E+00 -1.2026060914000E-01 -6.4856344896000E-01
   157  1.5600000000000E+00 -1.1901117832000E-01 -6.2447806083000E-01
   158  1.5700000000000E+00 -1.1750306201000E-01 -6.0059201411000E-01
   159  1.5800000000000E+00 -1.1575367660000E-01 -5.7692870046000E-01
   160  1.5900000000000E+00 -1.1378103327000E-01 -5.5351172928000E-01
   161  1.6000000000000E+00 -1.1160223601000E-01 -5.3036374264000E-01
   162  1.6100000000000E+00 -1.0923448225000E-01 -5.0750710541000E-01
   163  1.6200000000000E+00 -1.0669443101000E-01 -4.8496335813000E-01
   164  1.6300000000000E+00 -1.0399838345000E-01 -4.6275320376000E-01
   165  1.6400000000000E+00 -1.0116241735000E-01 -4.4089676887000E-01
   166  1.6500000000000E+00 -9.8201880305000E-02 -4.1941282904000E-01
   167  1.6600000000000E+00 -9.5132133810000E-02 -3.9831982527000E-01
   168  1.6700000000000E+00 -9.1967538611000E-02 -3.7763446055000E-01
   169  1.6800000000000E+00 -8.8722609762000E-02 -3.5737326068000E-01
   170  1.6900000000000E+00 -8.5410710127000E-02 -3.3755080115000E-01
   171  1.7000000000000E+00 -8.2045385571000E-02 -3.1818150477000E-01
   172  1.7100000000000E+00 -7.8639010294000E-02 -2.9927782994000E-01
   173  1.7200000000000E+00 -7.5204047446000E-02 -2.8085194904000E-01
   174  1.7300000000000E+00 -7.1751909587000E-02 -2.6291425897000E-01
   175  1.7400000000000E+00 -6.8293874743000E-02 -2.4547457329000E-01
   176  1.7500000000000E+00 -6.4840435335000E-02 -2.2854131181000E-01
   177  1.7600000000000E+00 -6.1401595595000E-02 -2.1212185981000E-01
   178  1.7700000000000E+00 -5.7986979109000E-02 -1.9622275893000E-01
   179  1.7800000000000E+00 -5.4605245361000E-02 -1.8084893759000E-01
   180  1.7900000000000E+00 -5.1265203808000E-02 -1.6600515930000E-01
   181  1.8000000000000E+00 -4.7974121612000E-02 -1.5169391234000E-01
   182  1.8100000000000E+00 -4.4740043983000E-02 -1.3791827003000E-01
   183  1.8200000000000E+00 -4.1568828874000E-02 -1.2467834872000E-01
   184  1.8300000000000E+00 -3.8467792565000E-02 -1.1197559482000E-01
   185  1.8400000000000E+00 -3.5441532325000E-02 -9.9808014675000E-02
   186  1.8500000000000E+00 -3.2496266898000E-02 -8.8175048772000E-02
   187  1.8600000000000E+00 -2.9635840170000E-02 -7.7073230868000E-02
   188  1.8700000000000E+00 -2.6865046755000E-02 -6.6499721840000E-02
   189  1.8800000000000E+00 -2.4187253607000E-02 -5.6449903786000E-02
   190  1.8900000000000E+00 -2.1605776789000E-02 -4.6918726071000E-02
   191  1.9000000000000E+00 -1.9123568190000E-02 -3.7900478321000E-02
   192  1.9100000000000E+00 -1.6742525714000E-02 -2.9388113858000E-02
   193  1.9200000000000E+00 -1.4465199454000E-02 -2.1374821880000E-02
   194  1.9300000000000E+00 -1.2292286186000E-02 -1.3851918965000E-02
   195  1.9400000000000E+00 -1.0225614386000E-02 -6.8112316397000E-03
   196  1.9500000000000E+00 -8.2652422219000E-03 -2.4300847051000E-04
   197  1.9600000000000E+00 -6.4118006897000E-03  5.8625142302000E-03
   198  1.9700000000000E+00 -4.6651708393000E-03  1.1515832814000E-02
   199  1.9800000000000E+00 -3.0247658162000E-03  1.6728072399000E-02
   200  1.9900000000000E+00 -1.4902630027000E-03  2.1510583737000E-02
   201  2.0000000000000E+00 -6.0132438833000E-05  2.5875432464000E-02
   202  2.0100000000000E+00  1.2664780397000E-03  2.9834975404000E-02
   203  2.0200000000000E+00  2.4915057544000E-03  3.3401895848000E-02
   204  2.0300000000000E+00  3.6166920791000E-03  3.6589361145000E-02
   205  2.0400000000000E+00  4.6440491973000E-03  3.9410759588000E-02
   206  2.0500000000000E+00  5.5761134844000E-03  4.1879589709000E-02
   207  2.0600000000000E+00  6.4150893427000E-03  4.4010191741000E-02
   208  2.0700000000000E+00  7.1639568077000E-03  4.5816164093000E-02
   209  2.0800000000000E+00  7.8254796496000E-03  4.7312148481000E-02
   210  2.0900000000000E+00  8.4026824116000E-03  4.8512452194000E-02
   211  2.1000000000000E+00  8.8987996526000E-03  4.9431283614000E-02
   212  2.1100000000000E+00  9.3170470047000E-03  5.0084020451000E-02
   213  2.1200000000000E+00  9.6608583261000E-03  5.0484351119000E-02
   214  2.1300000000000E+00  9.9337355965000E-03  5.0647502869000E-02
   215  2.1400000000000E+00  1.0139214276000E-02  5.0587940067000E-02
   216  2.1500000000000E+00  1.0280874902000E-02  5.0319608553000E-02
   217  2.1600000000000E+00  1.0362531015000E-02  4.9858281227000E-02
   218  2.1700000000000E+00  1.0387698418000E-02  4.9216889706000E-02
   219  2.1800000000000E+00  1.0360191248000E-02  4.8410217843000E-02
   220  2.1900000000000E+00  1.0283764756000E-02  4.7452533542000E-02
   221  2.2000000000000E+00  1.0161947075000E-02  4.6356603419000E-02
   222  2.2100000000000E+00  9.9987232171000E-03  4.5137437345000E-02
   223  2.2200000000000E+00  9.7975121620000E-03  4.3807217037000E-02
   224  2.2300000000000E+00  9.5619145575000E-03  4.2378868500000E-02
   225  2.2400000000000E+00  9.2958080599000E-03  4.0866482536000E-02
   226  2.2500000000000E+00  9.0022761747000E-03  3.9280691334000E-02
   227  2.2600000000000E+00  8.6850093473000E-03  3.7634597067000E-02
   228  2.2700000000000E+00  8.3473648139000E-03  3.5939942606000E-02
   229  2.2800000000000E+00  7.9922845135000E-03  3.4206785707000E-02
   230  2.2900000000000E+00  7.6234091901000E-03  3.2447840859000E-02
   231  2.3000000000000E+00  7.2434317917000E-03  3.0672228032000E-02
   232  2.3100000000000E+00  6.8551579078000E-03  2.8889464144000E-02
   233  2.3200000000000E+00  6.4620279223000E-03  2.7111374484000E-02
   234  2.3300000000000E+00  6.0660593721000E-03  2.5344586959000E-02
   235  2.3400000000000E+00  5.6699942926000E-03  2.3598335414000E-02
   236  2.3500000000000E+00  5.2765973893000E-03  2.1881919859000E-02
   237  2.3600000000000E+00  4.8875727276000E-03  2.0200847493000E-02
   238  2.3700000000000E+00  4.5054122743000E-03  1.8563404249000E-02
   239  2.3800000000000E+00  4.1321544085000E-03  1.6976266813000E-02
   240  2.3900000000000E+00  3.7691691434000E-03  1.5443746818000E-02
   241  2.4000000000000E+00  3.4186337297000E-03  1.3972976110000E-02
   242  2.4100000000000E+00  3.0818522771000E-03  1.2568016533000E-02
   243  2.4200000000000E+00  2.7598309341000E-03  1.1231873977000E-02
   244  2.4300000000000E+00  2.4543710048000E-03  9.9703270831000E-03
   245  2.4400000000000E+00  2.1660650845000E-03  8.7849069506000E-03
   246  2.4500000000000E+00  1.8955201319000E-03  7.6771823531000E-03
   247  2.4600000000000E+00  1.6441070516000E-03  6.6513955111000E-03
   248  2.4700000000000E+00  1.4117497234000E-03  5.7066819874000E-03
   249  2.4800000000000E+00  1.1986187311000E-03  4.8430330004000E-03
   250  2.4900000000000E+00  1.0056083326000E-03  4.0629907281000E-03
   251  2.5000000000000E+00  8.3202827380000E-04  3.3634642092000E-03
   252  2.5100000000000E+00  6.7757664295000E-04  2.7427271357000E-03
   253  2.5200000000000E+00  5.4263283427000E-04  2.2014772380000E-03
   254  2.5300000000000E+00  4.2595310519000E-04  1.7345889350000E-03
   255  2.5400000000000E+00  3.2672999099000E-04  1.3384859378000E-03
   256  2.5500000000000E+00  2.4479661912000E-04  1.0118935445000E-03
   257  2.5600000000000E+00  1.7841885204000E-04  7.4785972265000E-04
   258  2.5700000000000E+00  1.2625487799000E-04  5.4083858409000E-04
   259  2.5800000000000E+00  8.7565347072000E-05  3.8746813625000E-04
   260  2.5900000000000E+00  6.0189011960000E-05  2.7918916241000E-04
   261  2.6000000000000E+00  4.2225919604000E-05  2.0838415281000E-04
   262  2.6100000000000E+00  3.2788032305000E-05  1.7285843459000E-04
   263  2.6200000000000E+00  2.8752119963000E-05  1.5817940187000E-04
   264  2.6300000000000E+00  2.7117345722000E-05  1.5063068413000E-04
   265  2.6400000000000E+00  2.0970163766000E-05  1.1724690705000E-04
   266  2.6500000000000E+00  1.1943221286000E-05  6.7510122416000E-05
   267  2.6600000000000E+00  3.5835880463000E-06  2.0427566910000E-05
   268  2.6700000000000E+00 -1.1060121552000E-06 -6.1279512673000E-06
   269  2.6800000000000E+00 -1.7671331168000E-06 -9.7909463038000E-06
   270  2.6900000000000E+00 -9.7874843731000E-07 -5.4228361767000E-06
   271  2.7000000000000E+00  0.0000000000000E+00  0.0000000000000E+00
   272  2.7100000000000E+00  0.0000000000000E+00  0.0000000000000E+00
   273  2.7200000000000E+00  0.0000000000000E+00  0.0000000000000E+00
   274  2.7300000000000E+00  0.0000000000000E+00  0.0000000000000E+00
   275  2.7400000000000E+00  0.0000000000000E+00  0.0000000000000E+00
   276  2.7500000000000E+00  0.0000000000000E+00  0.0000000000000E+00
   277  2.7600000000000E+00  0.0000000000000E+00  0.0000000000000E+00
   278  2.7700000000000E+00  0.0000000000000E+00  0.0000000000000E+00
   279  2.7800000000000E+00  0.0000000000000E+00  0.0000000000000E+00
   280  2.7900000000000E+00  0.0000000000000E+00  0.0000000000000E+00
   281  2.8000000000000E+00  0.0000000000000E+00  0.0000000000000E+00
   282  2.8100000000000E+00  0.0000000000000E+00  0.0000000000000E+00
   283  2.8200000000000E+00  0.0000000000000E+00  0.0000000000000E+00
   284  2.8300000000000E+00  0.0000000000000E+00  0.0000000000000E+00
   285  2.8400000000000E+00  0.0000000000000E+00  0.0000000000000E+00
   286  2.8500000000000E+00  0.0000000000000E+00  0.0000000000000E+00
   287  2.8600000000000E+00  0.0000000000000E+00  0.0000000000000E+00
   288  2.8700000000000E+00  0.0000000000000E+00  0.0000000000000E+00
   289  2.8800000000000E+00  0.0000000000000E+00  0.0000000000000E+00
   290  2.8900000000000E+00  0.0000000000000E+00  0.0000000000000E+00
   291  2.9000000000000E+00  0.0000000000000E+00  0.0000000000000E+00
   292  2.9100000000000E+00  0.0000000000000E+00  0.0000000000000E+00
   293  2.9200000000000E+00  0.0000000000000E+00  0.0000000000000E+00
   294  2.9300000000000E+00  0.0000000000000E+00  0.0000000000000E+00
   295  2.9400000000000E+00  0.0000000000000E+00  0.0000000000000E+00
   296  2.9500000000000E+00  0.0000000000000E+00  0.0000000000000E+00
   297  2.9600000000000E+00  0.0000000000000E+00  0.0000000000000E+00
   298  2.9700000000000E+00  0.0000000000000E+00  0.0000000000000E+00
   299  2.9800000000000E+00  0.0000000000000E+00  0.0000000000000E+00
   300  2.9900000000000E+00  0.0000000000000E+00  0.0000000000000E+00
   301  3.0000000000000E+00  0.0000000000000E+00  0.0000000000000E+00
   302  3.0100000000000E+00  0.0000000000000E+00  0.0000000000000E+00
   303  3.0200000000000E+00  0.0000000000000E+00  0.0000000000000E+00
   304  3.0300000000000E+00  0.0000000000000E+00  0.0000000000000E+00
   305  3.0400000000000E+00  0.0000000000000E+00  0.0000000000000E+00
   306  3.0500000000000E+00  0.0000000000000E+00  0.0000000000000E+00
   307  3.0600000000000E+00  0.0000000000000E+00  0.0000000000000E+00
   308  3.0700000000000E+00  0.0000000000000E+00  0.0000000000000E+00
   309  3.0800000000000E+00  0.0000000000000E+00  0.0000000000000E+00
   310  3.0900000000000E+00  0.0000000000000E+00  0.0000000000000E+00
   311  3.1000000000000E+00  0.0000000000000E+00  0.0000000000000E+00
   312  3.1100000000000E+00  0.0000000000000E+00  0.0000000000000E+00
   313  3.1200000000000E+00  0.0000000000000E+00  0.0000000000000E+00
   314  3.1300000000000E+00  0.0000000000000E+00  0.0000000000000E+00
   315  3.1400000000000E+00  0.0000000000000E+00  0.0000000000000E+00
   316  3.1500000000000E+00  0.0000000000000E+00  0.0000000000000E+00
   317  3.1600000000000E+00  0.0000000000000E+00  0.0000000000000E+00
   318  3.1700000000000E+00  0.0000000000000E+00  0.0000000000000E+00
   319  3.1800000000000E+00  0.0000000000000E+00  0.0000000000000E+00
   320  3.1900000000000E+00  0.0000000000000E+00  0.0000000000000E+00
   321  3.2000000000000E+00  0.0000000000000E+00  0.0000000000000E+00
   322  3.2100000000000E+00  0.0000000000000E+00  0.0000000000000E+00
   323  3.2200000000000E+00  0.0000000000000E+00  0.0000000000000E+00
   324  3.2300000000000E+00  0.0000000000000E+00  0.0000000000000E+00
   325  3.2400000000000E+00  0.0000000000000E+00  0.0000000000000E+00
   326  3.2500000000000E+00  0.0000000000000E+00  0.0000000000000E+00
   327  3.2600000000000E+00  0.0000000000000E+00  0.0000000000000E+00
   328  3.2700000000000E+00  0.0000000000000E+00  0.0000000000000E+00
   329  3.2800000000000E+00  0.0000000000000E+00  0.0000000000000E+00
   330  3.2900000000000E+00  0.0000000000000E+00  0.0000000000000E+00
   331  3.3000000000000E+00  0.0000000000000E+00  0.0000000000000E+00
   332  3.3100000000000E+00  0.0000000000000E+00  0.0000000000000E+00
   333  3.3200000000000E+00  0.0000000000000E+00  0.0000000000000E+00
   334  3.3300000000000E+00  0.0000000000000E+00  0.0000000000000E+00
   335  3.3400000000000E+00  0.0000000000000E+00  0.0000000000000E+00
   336  3.3500000000000E+00  0.0000000000000E+00  0.0000000000000E+00
   337  3.3600000000000E+00  0.0000000000000E+00  0.0000000000000E+00
   338  3.3700000000000E+00  0.0000000000000E+00  0.0000000000000E+00
   339  3.3800000000000E+00  0.0000000000000E+00  0.0000000000000E+00
   340  3.3900000000000E+00  0.0000000000000E+00  0.0000000000000E+00
   341  3.4000000000000E+00  0.0000000000000E+00  0.0000000000000E+00
   342  3.4100000000000E+00  0.0000000000000E+00  0.0000000000000E+00
   343  3.4200000000000E+00  0.0000000000000E+00  0.0000000000000E+00
   344  3.4300000000000E+00  0.0000000000000E+00  0.0000000000000E+00
   345  3.4400000000000E+00  0.0000000000000E+00  0.0000000000000E+00
   346  3.4500000000000E+00  0.0000000000000E+00  0.0000000000000E+00
   347  3.4600000000000E+00  0.0000000000000E+00  0.0000000000000E+00
   348  3.4700000000000E+00  0.0000000000000E+00  0.0000000000000E+00
   349  3.4800000000000E+00  0.0000000000000E+00  0.0000000000000E+00
   350  3.4900000000000E+00  0.0000000000000E+00  0.0000000000000E+00
   351  3.5000000000000E+00  0.0000000000000E+00  0.0000000000000E+00
   352  3.5100000000000E+00  0.0000000000000E+00  0.0000000000000E+00
   353  3.5200000000000E+00  0.0000000000000E+00  0.0000000000000E+00
   354  3.5300000000000E+00  0.0000000000000E+00  0.0000000000000E+00
   355  3.5400000000000E+00  0.0000000000000E+00  0.0000000000000E+00
   356  3.5500000000000E+00  0.0000000000000E+00  0.0000000000000E+00
   357  3.5600000000000E+00  0.0000000000000E+00  0.0000000000000E+00
   358  3.5700000000000E+00  0.0000000000000E+00  0.0000000000000E+00
   359  3.5800000000000E+00  0.0000000000000E+00  0.0000000000000E+00
   360  3.5900000000000E+00  0.0000000000000E+00  0.0000000000000E+00
   361  3.6000000000000E+00  0.0000000000000E+00  0.0000000000000E+00
   362  3.6100000000000E+00  0.0000000000000E+00  0.0000000000000E+00
   363  3.6200000000000E+00  0.0000000000000E+00  0.0000000000000E+00
   364  3.6300000000000E+00  0.0000000000000E+00  0.0000000000000E+00
   365  3.6400000000000E+00  0.0000000000000E+00  0.0000000000000E+00
   366  3.6500000000000E+00  0.0000000000000E+00  0.0000000000000E+00
   367  3.6600000000000E+00  0.0000000000000E+00  0.0000000000000E+00
   368  3.6700000000000E+00  0.0000000000000E+00  0.0000000000000E+00
   369  3.6800000000000E+00  0.0000000000000E+00  0.0000000000000E+00
   370  3.6900000000000E+00  0.0000000000000E+00  0.0000000000000E+00
   371  3.7000000000000E+00  0.0000000000000E+00  0.0000000000000E+00
   372  3.7100000000000E+00  0.0000000000000E+00  0.0000000000000E+00
   373  3.7200000000000E+00  0.0000000000000E+00  0.0000000000000E+00
   374  3.7300000000000E+00  0.0000000000000E+00  0.0000000000000E+00
   375  3.7400000000000E+00  0.0000000000000E+00  0.0000000000000E+00
   376  3.7500000000000E+00  0.0000000000000E+00  0.0000000000000E+00
   377  3.7600000000000E+00  0.0000000000000E+00  0.0000000000000E+00
   378  3.7700000000000E+00  0.0000000000000E+00  0.0000000000000E+00
   379  3.7800000000000E+00  0.0000000000000E+00  0.0000000000000E+00
   380  3.7900000000000E+00  0.0000000000000E+00  0.0000000000000E+00
   381  3.8000000000000E+00  0.0000000000000E+00  0.0000000000000E+00
   382  3.8100000000000E+00  0.0000000000000E+00  0.0000000000000E+00
   383  3.8200000000000E+00  0.0000000000000E+00  0.0000000000000E+00
   384  3.8300000000000E+00  0.0000000000000E+00  0.0000000000000E+00
   385  3.8400000000000E+00  0.0000000000000E+00  0.0000000000000E+00
   386  3.8500000000000E+00  0.0000000000000E+00  0.0000000000000E+00
   387  3.8600000000000E+00  0.0000000000000E+00  0.0000000000000E+00
   388  3.8700000000000E+00  0.0000000000000E+00  0.0000000000000E+00
   389  3.8800000000000E+00  0.0000000000000E+00  0.0000000000000E+00
   390  3.8900000000000E+00  0.0000000000000E+00  0.0000000000000E+00
   391  3.9000000000000E+00  0.0000000000000E+00  0.0000000000000E+00
   392  3.9100000000000E+00  0.0000000000000E+00  0.0000000000000E+00
   393  3.9200000000000E+00  0.0000000000000E+00  0.0000000000000E+00
   394  3.9300000000000E+00  0.0000000000000E+00  0.0000000000000E+00
   395  3.9400000000000E+00  0.0000000000000E+00  0.0000000000000E+00
   396  3.9500000000000E+00  0.0000000000000E+00  0.0000000000000E+00
   397  3.9600000000000E+00  0.0000000000000E+00  0.0000000000000E+00
   398  3.9700000000000E+00  0.0000000000000E+00  0.0000000000000E+00
   399  3.9800000000000E+00  0.0000000000000E+00  0.0000000000000E+00
   400  3.9900000000000E+00  0.0000000000000E+00  0.0000000000000E+00
   401  4.0000000000000E+00  0.0000000000000E+00  0.0000000000000E+00
   402  4.0100000000000E+00  0.0000000000000E+00  0.0000000000000E+00
   403  4.0200000000000E+00  0.0000000000000E+00  0.0000000000000E+00
   404  4.0300000000000E+00  0.0000000000000E+00  0.0000000000000E+00
   405  4.0400000000000E+00  0.0000000000000E+00  0.0000000000000E+00
   406  4.0500000000000E+00  0.0000000000000E+00  0.0000000000000E+00
   407  4.0600000000000E+00  0.0000000000000E+00  0.0000000000000E+00
   408  4.0700000000000E+00  0.0000000000000E+00  0.0000000000000E+00
   409  4.0800000000000E+00  0.0000000000000E+00  0.0000000000000E+00
   410  4.0900000000000E+00  0.0000000000000E+00  0.0000000000000E+00
   411  4.1000000000000E+00  0.0000000000000E+00  0.0000000000000E+00
   412  4.1100000000000E+00  0.0000000000000E+00  0.0000000000000E+00
   413  4.1200000000000E+00  0.0000000000000E+00  0.0000000000000E+00
   414  4.1300000000000E+00  0.0000000000000E+00  0.0000000000000E+00
   415  4.1400000000000E+00  0.0000000000000E+00  0.0000000000000E+00
   416  4.1500000000000E+00  0.0000000000000E+00  0.0000000000000E+00
   417  4.1600000000000E+00  0.0000000000000E+00  0.0000000000000E+00
   418  4.1700000000000E+00  0.0000000000000E+00  0.0000000000000E+00
   419  4.1800000000000E+00  0.0000000000000E+00  0.0000000000000E+00
   420  4.1900000000000E+00  0.0000000000000E+00  0.0000000000000E+00
   421  4.2000000000000E+00  0.0000000000000E+00  0.0000000000000E+00
   422  4.2100000000000E+00  0.0000000000000E+00  0.0000000000000E+00
   423  4.2200000000000E+00  0.0000000000000E+00  0.0000000000000E+00