Br   ONCVPSP-2.1.1   r_core=    2.49793 2.49793 2.49793
    35.0000   7.0000   150105   zatom,zion,pspd
    8   11   2   4   600   0   pspcod,pspxc,lmax,lloc,mmax,r2well
    5.99000000   0.00000000   0.00000000   rchrg fchrg qchrg
    2   2   2   0   0   nproj
    1   1   extension_switch
       0                        -3.6263254992500E+00  1.7504638047500E+00
     1  0.0000000000000E+00  0.0000000000000E+00  0.0000000000000E+00
     2  1.0000000000000E-02 -3.0707725670000E-02 -2.4042133705000E-02
     3  2.0000000000000E-02 -6.1413072811000E-02 -4.8049324708000E-02
     4  3.0000000000000E-02 -9.2113464848000E-02 -7.1986791754000E-02
     5  4.0000000000000E-02 -1.2280593036000E-01 -9.5820075658000E-02
     6  5.0000000000000E-02 -1.5348690880000E-01 -1.1951519828000E-01
     7  6.0000000000000E-02 -1.8415205991000E-01 -1.4303881907000E-01
     8  7.0000000000000E-02 -2.1479607813000E-01 -1.6635838828000E-01
     9  8.0000000000000E-02 -2.4541251309000E-01 -1.8944229627000E-01
    10  9.0000000000000E-02 -2.7599359747000E-01 -2.1226001785000E-01
    11  1.0000000000000E-01 -3.0653008322000E-01 -2.3478225123000E-01
    12  1.1000000000000E-01 -3.3701108727000E-01 -2.5698105057000E-01
    13  1.2000000000000E-01 -3.6742394786000E-01 -2.7882995168000E-01
    14  1.3000000000000E-01 -3.9775409226000E-01 -3.0030409014000E-01
    15  1.4000000000000E-01 -4.2798491699000E-01 -3.2138031108000E-01
    16  1.5000000000000E-01 -4.5809768130000E-01 -3.4203727036000E-01
    17  1.6000000000000E-01 -4.8807141475000E-01 -3.6225552631000E-01
    18  1.7000000000000E-01 -5.1788283954000E-01 -3.8201762174000E-01
    19  1.8000000000000E-01 -5.4750630828000E-01 -4.0130815569000E-01
    20  1.9000000000000E-01 -5.7691375774000E-01 -4.2011384459000E-01
    21  2.0000000000000E-01 -6.0607467920000E-01 -4.3842357242000E-01
    22  2.1000000000000E-01 -6.3495610538000E-01 -4.5622842976000E-01
    23  2.2000000000000E-01 -6.6352261489000E-01 -4.7352174123000E-01
    24  2.3000000000000E-01 -6.9173635383000E-01 -4.9029908141000E-01
    25  2.4000000000000E-01 -7.1955707501000E-01 -5.0655827896000E-01
    26  2.5000000000000E-01 -7.4694219475000E-01 -5.2229940908000E-01
    27  2.6000000000000E-01 -7.7384686704000E-01 -5.3752477399000E-01
    28  2.7000000000000E-01 -8.0022407540000E-01 -5.5223887189000E-01
    29  2.8000000000000E-01 -8.2602474141000E-01 -5.6644835416000E-01
    30  2.9000000000000E-01 -8.5119785038000E-01 -5.8016197127000E-01
    31  3.0000000000000E-01 -8.7569059326000E-01 -5.9339050744000E-01
    32  3.1000000000000E-01 -8.9944852454000E-01 -6.0614670439000E-01
    33  3.2000000000000E-01 -9.2241573454000E-01 -6.1844517491000E-01
    34  3.3000000000000E-01 -9.4453503861000E-01 -6.3030230538000E-01
    35  3.4000000000000E-01 -9.6574817743000E-01 -6.4173614965000E-01
    36  3.5000000000000E-01 -9.8599603109000E-01 -6.5276631355000E-01
    37  3.6000000000000E-01 -1.0052188470000E+00 -6.6341382993000E-01
    38  3.7000000000000E-01 -1.0233564778000E+00 -6.7370102608000E-01
    39  3.8000000000000E-01 -1.0403486254000E+00 -6.8365138589000E-01
    40  3.9000000000000E-01 -1.0561351022000E+00 -6.9328940084000E-01
    41  4.0000000000000E-01 -1.0706560947000E+00 -7.0264041827000E-01
    42  4.1000000000000E-01 -1.0838524324000E+00 -7.1173048443000E-01
    43  4.2000000000000E-01 -1.0956658653000E+00 -7.2058618172000E-01
    44  4.3000000000000E-01 -1.1060393446000E+00 -7.2923446270000E-01
    45  4.4000000000000E-01 -1.1149173054000E+00 -7.3770248124000E-01
    46  4.5000000000000E-01 -1.1222459516000E+00 -7.4601742165000E-01
    47  4.6000000000000E-01 -1.1279735400000E+00 -7.5420632664000E-01
    48  4.7000000000000E-01 -1.1320506613000E+00 -7.6229592600000E-01
    49  4.8000000000000E-01 -1.1344305165000E+00 -7.7031246731000E-01
    50  4.9000000000000E-01 -1.1350692114000E+00 -7.7828153436000E-01
    51  5.0000000000000E-01 -1.1339260090000E+00 -7.8622788965000E-01
    52  5.1000000000000E-01 -1.1309635834000E+00 -7.9417531472000E-01
    53  5.2000000000000E-01 -1.1261482996000E+00 -8.0214643486000E-01
    54  5.3000000000000E-01 -1.1194504591000E+00 -8.1016256219000E-01
    55  5.4000000000000E-01 -1.1108444780000E+00 -8.1824357916000E-01
    56  5.5000000000000E-01 -1.1003092117000E+00 -8.2640773222000E-01
    57  5.6000000000000E-01 -1.0878280464000E+00 -8.3467156578000E-01
    58  5.7000000000000E-01 -1.0733891968000E+00 -8.4304972988000E-01
    59  5.8000000000000E-01 -1.0569857885000E+00 -8.5155491858000E-01
    60  5.9000000000000E-01 -1.0386161235000E+00 -8.6019769404000E-01
    61  6.0000000000000E-01 -1.0182836859000E+00 -8.6898647128000E-01
    62  6.1000000000000E-01 -9.9599743649000E-01 -8.7792732074000E-01
    63  6.2000000000000E-01 -9.7177175430000E-01 -8.8702399152000E-01
    64  6.3000000000000E-01 -9.4562661569000E-01 -8.9627778353000E-01
    65  6.4000000000000E-01 -9.1758765692000E-01 -9.0568749120000E-01
    66  6.5000000000000E-01 -8.8768614672000E-01 -9.1524940503000E-01
    67  6.6000000000000E-01 -8.5595906989000E-01 -9.2495723857000E-01
    68  6.7000000000000E-01 -8.2244912602000E-01 -9.3480210816000E-01
    69  6.8000000000000E-01 -7.8720465856000E-01 -9.4477255830000E-01
    70  6.9000000000000E-01 -7.5027961165000E-01 -9.5485456724000E-01
    71  7.0000000000000E-01 -7.1173350367000E-01 -9.6503153545000E-01
    72  7.1000000000000E-01 -6.7163130048000E-01 -9.7528434210000E-01
    73  7.2000000000000E-01 -6.3004328973000E-01 -9.8559139928000E-01
    74  7.3000000000000E-01 -5.8704494901000E-01 -9.9592870662000E-01
    75  7.4000000000000E-01 -5.4271678277000E-01 -1.0062699255000E+00
    76  7.5000000000000E-01 -4.9714413817000E-01 -1.0165864672000E+00
    77  7.6000000000000E-01 -4.5041700338000E-01 -1.0268475808000E+00
    78  7.7000000000000E-01 -4.0262976788000E-01 -1.0370204803000E+00
    79  7.8000000000000E-01 -3.5388098073000E-01 -1.0470704608000E+00
    80  7.9000000000000E-01 -3.0427308384000E-01 -1.0569610328000E+00
    81  8.0000000000000E-01 -2.5391212684000E-01 -1.0666540660000E+00
    82  8.1000000000000E-01 -2.0290746450000E-01 -1.0761099438000E+00
    83  8.2000000000000E-01 -1.5137143790000E-01 -1.0852877269000E+00
    84  8.3000000000000E-01 -9.9419040573000E-02 -1.0941453255000E+00
    85  8.4000000000000E-01 -4.7167570680000E-02 -1.1026396796000E+00
    86  8.5000000000000E-01  5.2637292591000E-03 -1.1107269462000E+00
    87  8.6000000000000E-01  5.7754043841000E-02 -1.1183626927000E+00
    88  8.7000000000000E-01  1.1018136599000E-01 -1.1255020956000E+00
    89  8.8000000000000E-01  1.6242288644000E-01 -1.1321001446000E+00
    90  8.9000000000000E-01  2.1435538991000E-01 -1.1381118492000E+00
    91  9.0000000000000E-01  2.6585565639000E-01 -1.1434924484000E+00
    92  9.1000000000000E-01  3.1680086591000E-01 -1.1481976226000E+00
    93  9.2000000000000E-01  3.6706900504000E-01 -1.1521837054000E+00
    94  9.3000000000000E-01  4.1653927327000E-01 -1.1554078956000E+00
    95  9.4000000000000E-01  4.6509248764000E-01 -1.1578284671000E+00
    96  9.5000000000000E-01  5.1261142237000E-01 -1.1594049469000E+00
    97  9.6000000000000E-01  5.5898127113000E-01 -1.1600983520000E+00
    98  9.7000000000000E-01  6.0409018549000E-01 -1.1598714645000E+00
    99  9.8000000000000E-01  6.4782942982000E-01 -1.1586889146000E+00
   100  9.9000000000000E-01  6.9009383609000E-01 -1.1565174103000E+00
   101  1.0000000000000E+00  7.3078216308000E-01 -1.1533259198000E+00
   102  1.0100000000000E+00  7.6979744110000E-01 -1.1490858439000E+00
   103  1.0200000000000E+00  8.0704712092000E-01 -1.1437710899000E+00
   104  1.0300000000000E+00  8.4244372643000E-01 -1.1373583954000E+00
   105  1.0400000000000E+00  8.7590527813000E-01 -1.1298275347000E+00
   106  1.0500000000000E+00  9.0735513615000E-01 -1.1211612344000E+00
   107  1.0600000000000E+00  9.3672242969000E-01 -1.1113453792000E+00
   108  1.0700000000000E+00  9.6394209713000E-01 -1.1003690243000E+00
   109  1.0800000000000E+00  9.8895532275000E-01 -1.0882246015000E+00
   110  1.0900000000000E+00  1.0117103756000E+00 -1.0749083148000E+00
   111  1.1000000000000E+00  1.0321617836000E+00 -1.0604197192000E+00
   112  1.1100000000000E+00  1.0502708070000E+00 -1.0447619368000E+00
   113  1.1200000000000E+00  1.0660048799000E+00 -1.0279413764000E+00
   114  1.1300000000000E+00  1.0793399365000E+00 -1.0099688212000E+00
   115  1.1400000000000E+00  1.0902583321000E+00 -9.9085840497000E-01
   116  1.1500000000000E+00  1.0987493818000E+00 -9.7062784904000E-01
   117  1.1600000000000E+00  1.1048090042000E+00 -9.4929828302000E-01
   118  1.1700000000000E+00  1.1084417594000E+00 -9.2689513283000E-01
   119  1.1800000000000E+00  1.1096585607000E+00 -9.0344703206000E-01
   120  1.1900000000000E+00  1.1084768370000E+00 -8.7898588550000E-01
   121  1.2000000000000E+00  1.1049216850000E+00 -8.5354733451000E-01
   122  1.2100000000000E+00  1.0990253840000E+00 -8.2717046333000E-01
   123  1.2200000000000E+00  1.0908262627000E+00 -7.9989729078000E-01
   124  1.2300000000000E+00  1.0803691223000E+00 -7.7177293095000E-01
   125  1.2400000000000E+00  1.0677062292000E+00 -7.4284584656000E-01
   126  1.2500000000000E+00  1.0528952153000E+00 -7.1316699554000E-01
   127  1.2600000000000E+00  1.0359993761000E+00 -6.8278996477000E-01
   128  1.2700000000000E+00  1.0170888431000E+00 -6.5177112595000E-01
   129  1.2800000000000E+00  9.9623837089000E-01 -6.2016889380000E-01
   130  1.2900000000000E+00  9.7352782151000E-01 -5.8804391651000E-01
   131  1.3000000000000E+00  9.4904252615000E-01 -5.5545872063000E-01
   132  1.3100000000000E+00  9.2287176140000E-01 -5.2247748938000E-01
   133  1.3200000000000E+00  8.9510927326000E-01 -4.8916609281000E-01
   134  1.3300000000000E+00  8.6585251906000E-01 -4.5559126528000E-01
   135  1.3400000000000E+00  8.3520246399000E-01 -4.2182117591000E-01
   136  1.3500000000000E+00  8.0326324862000E-01 -3.8792462687000E-01
   137  1.3600000000000E+00  7.7014118725000E-01 -3.5397055868000E-01
   138  1.3700000000000E+00  7.3594602137000E-01 -3.2002932862000E-01
   139  1.3800000000000E+00  7.0078797368000E-01 -2.8616994944000E-01
   140  1.3900000000000E+00  6.6477952521000E-01 -2.5246207407000E-01
   141  1.4000000000000E+00  6.2803472431000E-01 -2.1897522712000E-01
   142  1.4100000000000E+00  5.9066644312000E-01 -1.8577684953000E-01
   143  1.4200000000000E+00  5.5279071337000E-01 -1.5293571410000E-01
   144  1.4300000000000E+00  5.1452028240000E-01 -1.2051704472000E-01
   145  1.4400000000000E+00  4.7596927243000E-01 -8.8586185102000E-02
   146  1.4500000000000E+00  4.3725096590000E-01 -5.7206879943000E-02
   147  1.4600000000000E+00  3.9847484246000E-01 -2.6439380753000E-02
   148  1.4700000000000E+00  3.5975363263000E-01  3.6546948650000E-03
   149  1.4800000000000E+00  3.2119136091000E-01  3.3020472881000E-02
   150  1.4900000000000E+00  2.8289584417000E-01  6.1601282172000E-02
   151  1.5000000000000E+00  2.4496747061000E-01  8.9346188497000E-02
   152  1.5100000000000E+00  2.0750593650000E-01  1.1620539420000E-01
   153  1.5200000000000E+00  1.7060756096000E-01  1.4213207159000E-01
   154  1.5300000000000E+00  1.3436223010000E-01  1.6708415900000E-01
   155  1.5400000000000E+00  9.8861146500000E-02  1.9101950963000E-01
   156  1.5500000000000E+00  6.4183272918000E-02  2.1390427539000E-01
   157  1.5600000000000E+00  3.0413544352000E-02  2.3570161623000E-01
   158  1.5700000000000E+00 -2.3798716196000E-03  2.5638561606000E-01
   159  1.5800000000000E+00 -3.4122052641000E-02  2.7592690488000E-01
   160  1.5900000000000E+00 -6.4753505921000E-02  2.9430603653000E-01
   161  1.6000000000000E+00 -9.4211137255000E-02  3.1150203162000E-01
   162  1.6100000000000E+00 -1.2244458118000E-01  3.2750205355000E-01
   163  1.6200000000000E+00 -1.4940299438000E-01  3.4229356405000E-01
   164  1.6300000000000E+00 -1.7504575101000E-01  3.5587055804000E-01
   165  1.6400000000000E+00 -1.9933429170000E-01  3.6822875260000E-01
   166  1.6500000000000E+00 -2.2223825565000E-01  3.7936912463000E-01
   167  1.6600000000000E+00 -2.4373112281000E-01  3.8929529879000E-01
   168  1.6700000000000E+00 -2.6379318937000E-01  3.9801528308000E-01
   169  1.6800000000000E+00 -2.8240950011000E-01  4.0554013419000E-01
   170  1.6900000000000E+00 -2.9957122675000E-01  4.1188481389000E-01
   171  1.7000000000000E+00 -3.1527432394000E-01  4.1706724222000E-01
   172  1.7100000000000E+00 -3.2952084834000E-01  4.2110910905000E-01
   173  1.7200000000000E+00 -3.4231688209000E-01  4.2403457259000E-01
   174  1.7300000000000E+00 -3.5367513338000E-01  4.2587165655000E-01
   175  1.7400000000000E+00 -3.6361096086000E-01  4.2665011495000E-01
   176  1.7500000000000E+00 -3.7214721441000E-01  4.2640372368000E-01
   177  1.7600000000000E+00 -3.7930767365000E-01  4.2516721383000E-01
   178  1.7700000000000E+00 -3.8512451228000E-01  4.2297932916000E-01
   179  1.7800000000000E+00 -3.8962913597000E-01  4.1987922114000E-01
   180  1.7900000000000E+00 -3.9286189292000E-01  4.1590960790000E-01
   181  1.8000000000000E+00 -3.9486113670000E-01  4.1111359483000E-01
   182  1.8100000000000E+00 -3.9567388372000E-01  4.0553668659000E-01
   183  1.8200000000000E+00 -3.9534497312000E-01  3.9922556287000E-01
   184  1.8300000000000E+00 -3.9392613665000E-01  3.9222736662000E-01
   185  1.8400000000000E+00 -3.9146863220000E-01  3.8459148028000E-01
   186  1.8500000000000E+00 -3.8802701828000E-01  3.7636614249000E-01
   187  1.8600000000000E+00 -3.8365751201000E-01  3.6760201277000E-01
   188  1.8700000000000E+00 -3.7841715871000E-01  3.5834831863000E-01
   189  1.8800000000000E+00 -3.7236488437000E-01  3.4865528375000E-01
   190  1.8900000000000E+00 -3.6556023121000E-01  3.3857323191000E-01
   191  1.9000000000000E+00 -3.5806230235000E-01  3.2815012152000E-01
   192  1.9100000000000E+00 -3.4993337477000E-01  3.1743757621000E-01
   193  1.9200000000000E+00 -3.4123068852000E-01  3.0648011662000E-01
   194  1.9300000000000E+00 -3.3201785829000E-01  2.9532902422000E-01
   195  1.9400000000000E+00 -3.2235069333000E-01  2.8402667333000E-01
   196  1.9500000000000E+00 -3.1229018010000E-01  2.7262027284000E-01
   197  1.9600000000000E+00 -3.0189289436000E-01  2.6115240784000E-01
   198  1.9700000000000E+00 -2.9121378233000E-01  2.4966362669000E-01
   199  1.9800000000000E+00 -2.8031119765000E-01  2.3819745576000E-01
   200  1.9900000000000E+00 -2.6923247326000E-01  2.2678703478000E-01
   201  2.0000000000000E+00 -2.5803534434000E-01  2.1547453436000E-01
   202  2.0100000000000E+00 -2.4676289948000E-01  2.0428910031000E-01
   203  2.0200000000000E+00 -2.3546480221000E-01  1.9326527337000E-01
   204  2.0300000000000E+00 -2.2418584632000E-01  1.8243332787000E-01
   205  2.0400000000000E+00 -2.1296374774000E-01  1.7181737349000E-01
   206  2.0500000000000E+00 -2.0184586108000E-01  1.6144928402000E-01
   207  2.0600000000000E+00 -1.9086028243000E-01  1.5134506410000E-01
   208  2.0700000000000E+00 -1.8004668347000E-01  1.4152985972000E-01
   209  2.0800000000000E+00 -1.6943434567000E-01  1.3202041243000E-01
   210  2.0900000000000E+00 -1.5904926245000E-01  1.2283066676000E-01
   211  2.1000000000000E+00 -1.4892402159000E-01  1.1397956187000E-01
   212  2.1100000000000E+00 -1.3907373045000E-01  1.0547236825000E-01
   213  2.1200000000000E+00 -1.2952426678000E-01  9.7322431454000E-02
   214  2.1300000000000E+00 -1.2029134734000E-01  8.9535285128000E-02
   215  2.1400000000000E+00 -1.1138761655000E-01  8.2113979629000E-02
   216  2.1500000000000E+00 -1.0283232211000E-01  7.5066308366000E-02
   217  2.1600000000000E+00 -9.4628992568000E-02  6.8388394267000E-02
   218  2.1700000000000E+00 -8.6789367303000E-02  6.2082150677000E-02
   219  2.1800000000000E+00 -7.9319585151000E-02  5.6145381069000E-02
   220  2.1900000000000E+00 -7.2220869531000E-02  5.0572263322000E-02
   221  2.2000000000000E+00 -6.5500463859000E-02  4.5360940807000E-02
   222  2.2100000000000E+00 -5.9155564002000E-02  4.0502704435000E-02
   223  2.2200000000000E+00 -5.3186544324000E-02  3.5990740572000E-02
   224  2.2300000000000E+00 -4.7593509708000E-02  3.1817944735000E-02
   225  2.2400000000000E+00 -4.2371813335000E-02  2.7974291609000E-02
   226  2.2500000000000E+00 -3.7520860339000E-02  2.4451764875000E-02
   227  2.2600000000000E+00 -3.3034539352000E-02  2.1239393938000E-02
   228  2.2700000000000E+00 -2.8904820892000E-02  1.8325067511000E-02
   229  2.2800000000000E+00 -2.5129137844000E-02  1.5699049532000E-02
   230  2.2900000000000E+00 -2.1692579278000E-02  1.3345787785000E-02
   231  2.3000000000000E+00 -1.8584070446000E-02  1.1251159886000E-02
   232  2.3100000000000E+00 -1.5792982236000E-02  9.4009852409000E-03
   233  2.3200000000000E+00 -1.3301795724000E-02  7.7789282920000E-03
   234  2.3300000000000E+00 -1.1095938110000E-02  6.3687940073000E-03
   235  2.3400000000000E+00 -9.1592910120000E-03  5.1544414976000E-03
   236  2.3500000000000E+00 -7.4736767437000E-03  4.1199463110000E-03
   237  2.3600000000000E+00 -6.0213205237000E-03  3.2475343876000E-03
   238  2.3700000000000E+00 -4.7843221876000E-03  2.5219620075000E-03
   239  2.3800000000000E+00 -3.7444714225000E-03  1.9282461806000E-03
   240  2.3900000000000E+00 -2.8817226536000E-03  1.4479152301000E-03
   241  2.4000000000000E+00 -2.1793822328000E-03  1.0688261609000E-03
   242  2.4100000000000E+00 -1.6198014122000E-03  7.7746891576000E-04
   243  2.4200000000000E+00 -1.1818525931000E-03  5.5573147433000E-04
   244  2.4300000000000E+00 -8.5206800839000E-04  3.9597084699000E-04
   245  2.4400000000000E+00 -6.1356949107000E-04  2.8622012818000E-04
   246  2.4500000000000E+00 -4.4669708768000E-04  2.1132991333000E-04
   247  2.4600000000000E+00 -3.4095030160000E-04  1.6724840110000E-04
   248  2.4700000000000E+00 -2.8305873240000E-04  1.4575474490000E-04
   249  2.4800000000000E+00 -2.6136479136000E-04  1.3878627101000E-04
   250  2.4900000000000E+00 -2.5270338819000E-04  1.3631711568000E-04
   251  2.5000000000000E+00 -2.2721635022000E-04  1.2321606699000E-04
   252  2.5100000000000E+00 -1.4454377527000E-04  7.8842693785000E-05
   253  2.5200000000000E+00 -5.8983711565000E-05  3.2308424672000E-05
   254  2.5300000000000E+00  5.2001650549000E-06 -2.8157355282000E-06
   255  2.5400000000000E+00  1.6179382652000E-05 -8.7606570322000E-06
   256  2.5500000000000E+00  1.0668148313000E-05 -5.7764866900000E-06
   257  2.5600000000000E+00  0.0000000000000E+00  0.0000000000000E+00
   258  2.5700000000000E+00  0.0000000000000E+00  0.0000000000000E+00
   259  2.5800000000000E+00  0.0000000000000E+00  0.0000000000000E+00
   260  2.5900000000000E+00  0.0000000000000E+00  0.0000000000000E+00
   261  2.6000000000000E+00  0.0000000000000E+00  0.0000000000000E+00
   262  2.6100000000000E+00  0.0000000000000E+00  0.0000000000000E+00
   263  2.6200000000000E+00  0.0000000000000E+00  0.0000000000000E+00
   264  2.6300000000000E+00  0.0000000000000E+00  0.0000000000000E+00
   265  2.6400000000000E+00  0.0000000000000E+00  0.0000000000000E+00
   266  2.6500000000000E+00  0.0000000000000E+00  0.0000000000000E+00
   267  2.6600000000000E+00  0.0000000000000E+00  0.0000000000000E+00
   268  2.6700000000000E+00  0.0000000000000E+00  0.0000000000000E+00
   269  2.6800000000000E+00  0.0000000000000E+00  0.0000000000000E+00
   270  2.6900000000000E+00  0.0000000000000E+00  0.0000000000000E+00
   271  2.7000000000000E+00  0.0000000000000E+00  0.0000000000000E+00
   272  2.7100000000000E+00  0.0000000000000E+00  0.0000000000000E+00
   273  2.7200000000000E+00  0.0000000000000E+00  0.0000000000000E+00
   274  2.7300000000000E+00  0.0000000000000E+00  0.0000000000000E+00
   275  2.7400000000000E+00  0.0000000000000E+00  0.0000000000000E+00
   276  2.7500000000000E+00  0.0000000000000E+00  0.0000000000000E+00
   277  2.7600000000000E+00  0.0000000000000E+00  0.0000000000000E+00
   278  2.7700000000000E+00  0.0000000000000E+00  0.0000000000000E+00
   279  2.7800000000000E+00  0.0000000000000E+00  0.0000000000000E+00
   280  2.7900000000000E+00  0.0000000000000E+00  0.0000000000000E+00
   281  2.8000000000000E+00  0.0000000000000E+00  0.0000000000000E+00
   282  2.8100000000000E+00  0.0000000000000E+00  0.0000000000000E+00
   283  2.8200000000000E+00  0.0000000000000E+00  0.0000000000000E+00
   284  2.8300000000000E+00  0.0000000000000E+00  0.0000000000000E+00
   285  2.8400000000000E+00  0.0000000000000E+00  0.0000000000000E+00
   286  2.8500000000000E+00  0.0000000000000E+00  0.0000000000000E+00
   287  2.8600000000000E+00  0.0000000000000E+00  0.0000000000000E+00
   288  2.8700000000000E+00  0.0000000000000E+00  0.0000000000000E+00
   289  2.8800000000000E+00  0.0000000000000E+00  0.0000000000000E+00
   290  2.8900000000000E+00  0.0000000000000E+00  0.0000000000000E+00
   291  2.9000000000000E+00  0.0000000000000E+00  0.0000000000000E+00
   292  2.9100000000000E+00  0.0000000000000E+00  0.0000000000000E+00
   293  2.9200000000000E+00  0.0000000000000E+00  0.0000000000000E+00
   294  2.9300000000000E+00  0.0000000000000E+00  0.0000000000000E+00
   295  2.9400000000000E+00  0.0000000000000E+00  0.0000000000000E+00
   296  2.9500000000000E+00  0.0000000000000E+00  0.0000000000000E+00
   297  2.9600000000000E+00  0.0000000000000E+00  0.0000000000000E+00
   298  2.9700000000000E+00  0.0000000000000E+00  0.0000000000000E+00
   299  2.9800000000000E+00  0.0000000000000E+00  0.0000000000000E+00
   300  2.9900000000000E+00  0.0000000000000E+00  0.0000000000000E+00
   301  3.0000000000000E+00  0.0000000000000E+00  0.0000000000000E+00
   302  3.0100000000000E+00  0.0000000000000E+00  0.0000000000000E+00
   303  3.0200000000000E+00  0.0000000000000E+00  0.0000000000000E+00
   304  3.0300000000000E+00  0.0000000000000E+00  0.0000000000000E+00
   305  3.0400000000000E+00  0.0000000000000E+00  0.0000000000000E+00
   306  3.0500000000000E+00  0.0000000000000E+00  0.0000000000000E+00
   307  3.0600000000000E+00  0.0000000000000E+00  0.0000000000000E+00
   308  3.0700000000000E+00  0.0000000000000E+00  0.0000000000000E+00
   309  3.0800000000000E+00  0.0000000000000E+00  0.0000000000000E+00
   310  3.0900000000000E+00  0.0000000000000E+00  0.0000000000000E+00
   311  3.1000000000000E+00  0.0000000000000E+00  0.0000000000000E+00
   312  3.1100000000000E+00  0.0000000000000E+00  0.0000000000000E+00
   313  3.1200000000000E+00  0.0000000000000E+00  0.0000000000000E+00
   314  3.1300000000000E+00  0.0000000000000E+00  0.0000000000000E+00
   315  3.1400000000000E+00  0.0000000000000E+00  0.0000000000000E+00
   316  3.1500000000000E+00  0.0000000000000E+00  0.0000000000000E+00
   317  3.1600000000000E+00  0.0000000000000E+00  0.0000000000000E+00
   318  3.1700000000000E+00  0.0000000000000E+00  0.0000000000000E+00
   319  3.1800000000000E+00  0.0000000000000E+00  0.0000000000000E+00
   320  3.1900000000000E+00  0.0000000000000E+00  0.0000000000000E+00
   321  3.2000000000000E+00  0.0000000000000E+00  0.0000000000000E+00
   322  3.2100000000000E+00  0.0000000000000E+00  0.0000000000000E+00
   323  3.2200000000000E+00  0.0000000000000E+00  0.0000000000000E+00
   324  3.2300000000000E+00  0.0000000000000E+00  0.0000000000000E+00
   325  3.2400000000000E+00  0.0000000000000E+00  0.0000000000000E+00
   326  3.2500000000000E+00  0.0000000000000E+00  0.0000000000000E+00
   327  3.2600000000000E+00  0.0000000000000E+00  0.0000000000000E+00
   328  3.2700000000000E+00  0.0000000000000E+00  0.0000000000000E+00
   329  3.2800000000000E+00  0.0000000000000E+00  0.0000000000000E+00
   330  3.2900000000000E+00  0.0000000000000E+00  0.0000000000000E+00
   331  3.3000000000000E+00  0.0000000000000E+00  0.0000000000000E+00
   332  3.3100000000000E+00  0.0000000000000E+00  0.0000000000000E+00
   333  3.3200000000000E+00  0.0000000000000E+00  0.0000000000000E+00
   334  3.3300000000000E+00  0.0000000000000E+00  0.0000000000000E+00
   335  3.3400000000000E+00  0.0000000000000E+00  0.0000000000000E+00
   336  3.3500000000000E+00  0.0000000000000E+00  0.0000000000000E+00
   337  3.3600000000000E+00  0.0000000000000E+00  0.0000000000000E+00
   338  3.3700000000000E+00  0.0000000000000E+00  0.0000000000000E+00
   339  3.3800000000000E+00  0.0000000000000E+00  0.0000000000000E+00
   340  3.3900000000000E+00  0.0000000000000E+00  0.0000000000000E+00
   341  3.4000000000000E+00  0.0000000000000E+00  0.0000000000000E+00
   342  3.4100000000000E+00  0.0000000000000E+00  0.0000000000000E+00
   343  3.4200000000000E+00  0.0000000000000E+00  0.0000000000000E+00
   344  3.4300000000000E+00  0.0000000000000E+00  0.0000000000000E+00
   345  3.4400000000000E+00  0.0000000000000E+00  0.0000000000000E+00
   346  3.4500000000000E+00  0.0000000000000E+00  0.0000000000000E+00
   347  3.4600000000000E+00  0.0000000000000E+00  0.0000000000000E+00
   348  3.4700000000000E+00  0.0000000000000E+00  0.0000000000000E+00
   349  3.4800000000000E+00  0.0000000000000E+00  0.0000000000000E+00
   350  3.4900000000000E+00  0.0000000000000E+00  0.0000000000000E+00
   351  3.5000000000000E+00  0.0000000000000E+00  0.0000000000000E+00
   352  3.5100000000000E+00  0.0000000000000E+00  0.0000000000000E+00
   353  3.5200000000000E+00  0.0000000000000E+00  0.0000000000000E+00
   354  3.5300000000000E+00  0.0000000000000E+00  0.0000000000000E+00
   355  3.5400000000000E+00  0.0000000000000E+00  0.0000000000000E+00
   356  3.5500000000000E+00  0.0000000000000E+00  0.0000000000000E+00
   357  3.5600000000000E+00  0.0000000000000E+00  0.0000000000000E+00
   358  3.5700000000000E+00  0.0000000000000E+00  0.0000000000000E+00
   359  3.5800000000000E+00  0.0000000000000E+00  0.0000000000000E+00
   360  3.5900000000000E+00  0.0000000000000E+00  0.0000000000000E+00
   361  3.6000000000000E+00  0.0000000000000E+00  0.0000000000000E+00
   362  3.6100000000000E+00  0.0000000000000E+00  0.0000000000000E+00
   363  3.6200000000000E+00  0.0000000000000E+00  0.0000000000000E+00
   364  3.6300000000000E+00  0.0000000000000E+00  0.0000000000000E+00
   365  3.6400000000000E+00  0.0000000000000E+00  0.0000000000000E+00
   366  3.6500000000000E+00  0.0000000000000E+00  0.0000000000000E+00
   367  3.6600000000000E+00  0.0000000000000E+00  0.0000000000000E+00
   368  3.6700000000000E+00  0.0000000000000E+00  0.0000000000000E+00
   369  3.6800000000000E+00  0.0000000000000E+00  0.0000000000000E+00
   370  3.6900000000000E+00  0.0000000000000E+00  0.0000000000000E+00
   371  3.7000000000000E+00  0.0000000000000E+00  0.0000000000000E+00
   372  3.7100000000000E+00  0.0000000000000E+00  0.0000000000000E+00
   373  3.7200000000000E+00  0.0000000000000E+00  0.0000000000000E+00
   374  3.7300000000000E+00  0.0000000000000E+00  0.0000000000000E+00
   375  3.7400000000000E+00  0.0000000000000E+00  0.0000000000000E+00
   376  3.7500000000000E+00  0.0000000000000E+00  0.0000000000000E+00
   377  3.7600000000000E+00  0.0000000000000E+00  0.0000000000000E+00
   378  3.7700000000000E+00  0.0000000000000E+00  0.0000000000000E+00
   379  3.7800000000000E+00  0.0000000000000E+00  0.0000000000000E+00
   380  3.7900000000000E+00  0.0000000000000E+00  0.0000000000000E+00
   381  3.8000000000000E+00  0.0000000000000E+00  0.0000000000000E+00
   382  3.8100000000000E+00  0.0000000000000E+00  0.0000000000000E+00
   383  3.8200000000000E+00  0.0000000000000E+00  0.0000000000000E+00
   384  3.8300000000000E+00  0.0000000000000E+00  0.0000000000000E+00
   385  3.8400000000000E+00  0.0000000000000E+00  0.0000000000000E+00
   386  3.8500000000000E+00  0.0000000000000E+00  0.0000000000000E+00
   387  3.8600000000000E+00  0.0000000000000E+00  0.0000000000000E+00
   388  3.8700000000000E+00  0.0000000000000E+00  0.0000000000000E+00
   389  3.8800000000000E+00  0.0000000000000E+00  0.0000000000000E+00
   390  3.8900000000000E+00  0.0000000000000E+00  0.0000000000000E+00
   391  3.9000000000000E+00  0.0000000000000E+00  0.0000000000000E+00
   392  3.9100000000000E+00  0.0000000000000E+00  0.0000000000000E+00
   393  3.9200000000000E+00  0.0000000000000E+00  0.0000000000000E+00
   394  3.9300000000000E+00  0.0000000000000E+00  0.0000000000000E+00
   395  3.9400000000000E+00  0.0000000000000E+00  0.0000000000000E+00
   396  3.9500000000000E+00  0.0000000000000E+00  0.0000000000000E+00
   397  3.9600000000000E+00  0.0000000000000E+00  0.0000000000000E+00
   398  3.9700000000000E+00  0.0000000000000E+00  0.0000000000000E+00
   399  3.9800000000000E+00  0.0000000000000E+00  0.0000000000000E+00
   400  3.9900000000000E+00  0.0000000000000E+00  0.0000000000000E+00
   401  4.0000000000000E+00  0.0000000000000E+00  0.0000000000000E+00
   402  4.0100000000000E+00  0.0000000000000E+00  0.0000000000000E+00
   403  4.0200000000000E+00  0.0000000000000E+00  0.0000000000000E+00
   404  4.0300000000000E+00  0.0000000000000E+00  0.0000000000000E+00
   405  4.0400000000000E+00  0.0000000000000E+00  0.0000000000000E+00
   406  4.0500000000000E+00  0.0000000000000E+00  0.0000000000000E+00
   407  4.0600000000000E+00  0.0000000000000E+00  0.0000000000000E+00
   408  4.0700000000000E+00  0.0000000000000E+00  0.0000000000000E+00
   409  4.0800000000000E+00  0.0000000000000E+00  0.0000000000000E+00
   410  4.0900000000000E+00  0.0000000000000E+00  0.0000000000000E+00
   411  4.1000000000000E+00  0.0000000000000E+00  0.0000000000000E+00
   412  4.1100000000000E+00  0.0000000000000E+00  0.0000000000000E+00
   413  4.1200000000000E+00  0.0000000000000E+00  0.0000000000000E+00
   414  4.1300000000000E+00  0.0000000000000E+00  0.0000000000000E+00
   415  4.1400000000000E+00  0.0000000000000E+00  0.0000000000000E+00
   416  4.1500000000000E+00  0.0000000000000E+00  0.0000000000000E+00
   417  4.1600000000000E+00  0.0000000000000E+00  0.0000000000000E+00
   418  4.1700000000000E+00  0.0000000000000E+00  0.0000000000000E+00
   419  4.1800000000000E+00  0.0000000000000E+00  0.0000000000000E+00
   420  4.1900000000000E+00  0.0000000000000E+00  0.0000000000000E+00
   421  4.2000000000000E+00  0.0000000000000E+00  0.0000000000000E+00
   422  4.2100000000000E+00  0.0000000000000E+00  0.0000000000000E+00
   423  4.2200000000000E+00  0.0000000000000E+00  0.0000000000000E+00