Kr   ONCVPSP-2.1.1   r_core=    2.80229 2.86994 2.86994
    36.0000   8.0000   150105   zatom,zion,pspd
    8   11   2   4   600   0   pspcod,pspxc,lmax,lloc,mmax,r2well
    5.99000000   0.00000000   0.00000000   rchrg fchrg qchrg
    2   2   2   0   0   nproj
    1   1   extension_switch
       0                         2.0908033963500E+00 -7.0766291510000E-02
     1  0.0000000000000E+00  0.0000000000000E+00  0.0000000000000E+00
     2  1.0000000000000E-02 -3.6613774113000E-02  7.8502625647000E-03
     3  2.0000000000000E-02 -7.3196902745000E-02  1.5708114670000E-02
     4  3.0000000000000E-02 -1.0971876630000E-01  2.3581059366000E-02
     5  4.0000000000000E-02 -1.4614879693000E-01  3.1476427165000E-02
     6  5.0000000000000E-02 -1.8245650445000E-01  3.9401290869000E-02
     7  6.0000000000000E-02 -2.1861150215000E-01  4.7362381724000E-02
     8  7.0000000000000E-02 -2.5458353268000E-01  5.5366007314000E-02
     9  8.0000000000000E-02 -2.9034249388000E-01  6.3417971626000E-02
    10  9.0000000000000E-02 -3.2585846461000E-01  7.1523497704000E-02
    11  1.0000000000000E-01 -3.6110173049000E-01  7.9687153281000E-02
    12  1.1000000000000E-01 -3.9604280974000E-01  8.7912779798000E-02
    13  1.2000000000000E-01 -4.3065247883000E-01  9.6203425165000E-02
    14  1.3000000000000E-01 -4.6490179819000E-01  1.0456128065000E-01
    15  1.4000000000000E-01 -4.9876213783000E-01  1.1298762220000E-01
    16  1.5000000000000E-01 -5.3220520291000E-01  1.2148275657000E-01
    17  1.6000000000000E-01 -5.6520305921000E-01  1.3004597249000E-01
    18  1.7000000000000E-01 -5.9772815858000E-01  1.3867549728000E-01
    19  1.8000000000000E-01 -6.2975336419000E-01  1.4736845896000E-01
    20  1.9000000000000E-01 -6.6125197580000E-01  1.5612085433000E-01
    21  2.0000000000000E-01 -6.9219775478000E-01  1.6492752308000E-01
    22  2.1000000000000E-01 -7.2256494908000E-01  1.7378212810000E-01
    23  2.2000000000000E-01 -7.5232831800000E-01  1.8267714229000E-01
    24  2.3000000000000E-01 -7.8146315678000E-01  1.9160384180000E-01
    25  2.4000000000000E-01 -8.0994532103000E-01  2.0055230601000E-01
    26  2.5000000000000E-01 -8.3775125083000E-01  2.0951142414000E-01
    27  2.6000000000000E-01 -8.6485799479000E-01  2.1846890857000E-01
    28  2.7000000000000E-01 -8.9124323363000E-01  2.2741131509000E-01
    29  2.8000000000000E-01 -9.1688530355000E-01  2.3632406971000E-01
    30  2.9000000000000E-01 -9.4176321930000E-01  2.4519150226000E-01
    31  3.0000000000000E-01 -9.6585669691000E-01  2.5399688656000E-01
    32  3.1000000000000E-01 -9.8914617598000E-01  2.6272248722000E-01
    33  3.2000000000000E-01 -1.0116128416000E+00  2.7134961271000E-01
    34  3.3000000000000E-01 -1.0332386457000E+00  2.7985867432000E-01
    35  3.4000000000000E-01 -1.0540063283000E+00  2.8822925226000E-01
    36  3.5000000000000E-01 -1.0738994376000E+00  2.9644016579000E-01
    37  3.6000000000000E-01 -1.0929023503000E+00  3.0446955109000E-01
    38  3.7000000000000E-01 -1.1110002903000E+00  3.1229494128000E-01
    39  3.8000000000000E-01 -1.1281793486000E+00  3.1989335589000E-01
    40  3.9000000000000E-01 -1.1444264999000E+00  3.2724139065000E-01
    41  4.0000000000000E-01 -1.1597296210000E+00  3.3431531365000E-01
    42  4.1000000000000E-01 -1.1740775068000E+00  3.4109116535000E-01
    43  4.2000000000000E-01 -1.1874598866000E+00  3.4754486195000E-01
    44  4.3000000000000E-01 -1.1998674386000E+00  3.5365230188000E-01
    45  4.4000000000000E-01 -1.2112918046000E+00  3.5938947512000E-01
    46  4.5000000000000E-01 -1.2217256028000E+00  3.6473257470000E-01
    47  4.6000000000000E-01 -1.2311624404000E+00  3.6965811016000E-01
    48  4.7000000000000E-01 -1.2395969249000E+00  3.7414302230000E-01
    49  4.8000000000000E-01 -1.2470246744000E+00  3.7816479875000E-01
    50  4.9000000000000E-01 -1.2534423260000E+00  3.8170158613000E-01
    51  5.0000000000000E-01 -1.2588475458000E+00  3.8473231387000E-01
    52  5.1000000000000E-01 -1.2632390350000E+00  3.8723680718000E-01
    53  5.2000000000000E-01 -1.2666165347000E+00  3.8919589170000E-01
    54  5.3000000000000E-01 -1.2689808324000E+00  3.9059151862000E-01
    55  5.4000000000000E-01 -1.2703337648000E+00  3.9140687572000E-01
    56  5.5000000000000E-01 -1.2706782184000E+00  3.9162647150000E-01
    57  5.6000000000000E-01 -1.2700181342000E+00  3.9123628751000E-01
    58  5.7000000000000E-01 -1.2683585021000E+00  3.9022381462000E-01
    59  5.8000000000000E-01 -1.2657053648000E+00  3.8857822652000E-01
    60  5.9000000000000E-01 -1.2620658089000E+00  3.8629039118000E-01
    61  6.0000000000000E-01 -1.2574479655000E+00  3.8335303730000E-01
    62  6.1000000000000E-01 -1.2518610005000E+00  3.7976077366000E-01
    63  6.2000000000000E-01 -1.2453151091000E+00  3.7551019767000E-01
    64  6.3000000000000E-01 -1.2378215066000E+00  3.7059997449000E-01
    65  6.4000000000000E-01 -1.2293924176000E+00  3.6503085833000E-01
    66  6.5000000000000E-01 -1.2200410650000E+00  3.5880579806000E-01
    67  6.6000000000000E-01 -1.2097816558000E+00  3.5192996873000E-01
    68  6.7000000000000E-01 -1.1986293674000E+00  3.4441079813000E-01
    69  6.8000000000000E-01 -1.1866003315000E+00  3.3625800574000E-01
    70  6.9000000000000E-01 -1.1737116143000E+00  3.2748366582000E-01
    71  7.0000000000000E-01 -1.1599811996000E+00  3.1810218084000E-01
    72  7.1000000000000E-01 -1.1454279676000E+00  3.0813030556000E-01
    73  7.2000000000000E-01 -1.1300716736000E+00  2.9758714302000E-01
    74  7.3000000000000E-01 -1.1139329233000E+00  2.8649414840000E-01
    75  7.4000000000000E-01 -1.0970331470000E+00  2.7487511283000E-01
    76  7.5000000000000E-01 -1.0793945752000E+00  2.6275612291000E-01
    77  7.6000000000000E-01 -1.0610402106000E+00  2.5016553249000E-01
    78  7.7000000000000E-01 -1.0419937992000E+00  2.3713391880000E-01
    79  7.8000000000000E-01 -1.0222797995000E+00  2.2369402941000E-01
    80  7.9000000000000E-01 -1.0019233515000E+00  2.0988072031000E-01
    81  8.0000000000000E-01 -9.8095024375000E-01  1.9573088521000E-01
    82  8.1000000000000E-01 -9.5938687942000E-01  1.8128337603000E-01
    83  8.2000000000000E-01 -9.3726024132000E-01  1.6657891504000E-01
    84  8.3000000000000E-01 -9.1459785582000E-01  1.5165999870000E-01
    85  8.4000000000000E-01 -8.9142775569000E-01  1.3657079349000E-01
    86  8.5000000000000E-01 -8.6777844204000E-01  1.2135702401000E-01
    87  8.6000000000000E-01 -8.4367884533000E-01  1.0606585369000E-01
    88  8.7000000000000E-01 -8.1915828551000E-01  9.0745758331000E-02
    89  8.8000000000000E-01 -7.9424643142000E-01  7.5446393023000E-02
    90  8.9000000000000E-01 -7.6897325944000E-01  6.0218452639000E-02
    91  9.0000000000000E-01 -7.4336901148000E-01  4.5113526458000E-02
    92  9.1000000000000E-01 -7.1746415248000E-01  3.0183947309000E-02
    93  9.2000000000000E-01 -6.9128932727000E-01  1.5482635764000E-02
    94  9.3000000000000E-01 -6.6487531720000E-01  1.0629398894000E-03
    95  9.4000000000000E-01 -6.3825299632000E-01 -1.3021528851000E-02
    96  9.5000000000000E-01 -6.1145328746000E-01 -2.6717062924000E-02
    97  9.6000000000000E-01 -5.8450711811000E-01 -3.9970028614000E-02
    98  9.7000000000000E-01 -5.5744537642000E-01 -5.2727037758000E-02
    99  9.8000000000000E-01 -5.3029888307000E-01 -6.4935075818000E-02
   100  9.9000000000000E-01 -5.0309831608000E-01 -7.6541760334000E-02
   101  1.0000000000000E+00 -4.7587416605000E-01 -8.7495525448000E-02
   102  1.0100000000000E+00 -4.4865671932000E-01 -9.7745720250000E-02
   103  1.0200000000000E+00 -4.2147600314000E-01 -1.0724281409000E-01
   104  1.0300000000000E+00 -3.9436174357000E-01 -1.1593856659000E-01
   105  1.0400000000000E+00 -3.6734335223000E-01 -1.2378610449000E-01
   106  1.0500000000000E+00 -3.4044983017000E-01 -1.3074025813000E-01
   107  1.0600000000000E+00 -3.1370971292000E-01 -1.3675777848000E-01
   108  1.0700000000000E+00 -2.8715109476000E-01 -1.4179729038000E-01
   109  1.0800000000000E+00 -2.6080156532000E-01 -1.4581952245000E-01
   110  1.0900000000000E+00 -2.3468823260000E-01 -1.4878725072000E-01
   111  1.1000000000000E+00 -2.0883752682000E-01 -1.5066597134000E-01
   112  1.1100000000000E+00 -1.8327525212000E-01 -1.5142375204000E-01
   113  1.1200000000000E+00 -1.5802658658000E-01 -1.5103124226000E-01
   114  1.1300000000000E+00 -1.3311608870000E-01 -1.4946165817000E-01
   115  1.1400000000000E+00 -1.0856752323000E-01 -1.4669137851000E-01
   116  1.1500000000000E+00 -8.4403837824000E-02 -1.4270002675000E-01
   117  1.1600000000000E+00 -6.0647256256000E-02 -1.3747015181000E-01
   118  1.1700000000000E+00 -3.7319315212000E-02 -1.3098710269000E-01
   119  1.1800000000000E+00 -1.4440502562000E-02 -1.2324023678000E-01
   120  1.1900000000000E+00  7.9695200205000E-03 -1.1422214859000E-01
   121  1.2000000000000E+00  2.9891874522000E-02 -1.0392851710000E-01
   122  1.2100000000000E+00  5.1308590461000E-02 -9.2358507577000E-02
   123  1.2200000000000E+00  7.2202828809000E-02 -7.9515455735000E-02
   124  1.2300000000000E+00  9.2558551545000E-02 -6.5405757769000E-02
   125  1.2400000000000E+00  1.1236053435000E-01 -5.0038920853000E-02
   126  1.2500000000000E+00  1.3159490160000E-01 -3.3429172260000E-02
   127  1.2600000000000E+00  1.5024857663000E-01 -1.5593679798000E-02
   128  1.2700000000000E+00  1.6830927462000E-01  3.4474327074000E-03
   129  1.2800000000000E+00  1.8576617140000E-01  2.3669215287000E-02
   130  1.2900000000000E+00  2.0260921569000E-01  4.5043987606000E-02
   131  1.3000000000000E+00  2.1882921165000E-01  6.7541044915000E-02
   132  1.3100000000000E+00  2.3441841926000E-01  9.1125202456000E-02
   133  1.3200000000000E+00  2.4936982302000E-01  1.1575880518000E-01
   134  1.3300000000000E+00  2.6367741835000E-01  1.4140095454000E-01
   135  1.3400000000000E+00  2.7733652157000E-01  1.6800702996000E-01
   136  1.3500000000000E+00  2.9034311996000E-01  1.9553015311000E-01
   137  1.3600000000000E+00  3.0269444408000E-01  2.2392004417000E-01
   138  1.3700000000000E+00  3.1438877890000E-01  2.5312370407000E-01
   139  1.3800000000000E+00  3.2542505812000E-01  2.8308591523000E-01
   140  1.3900000000000E+00  3.3580370426000E-01  3.1374836047000E-01
   141  1.4000000000000E+00  3.4552574972000E-01  3.4505086399000E-01
   142  1.4100000000000E+00  3.5459328489000E-01  3.7693084205000E-01
   143  1.4200000000000E+00  3.6300948674000E-01  4.0932386928000E-01
   144  1.4300000000000E+00  3.7077811567000E-01  4.4216346709000E-01
   145  1.4400000000000E+00  3.7790426067000E-01  4.7538183787000E-01
   146  1.4500000000000E+00  3.8439356153000E-01  5.0890947155000E-01
   147  1.4600000000000E+00  3.9025267752000E-01  5.4267565876000E-01
   148  1.4700000000000E+00  3.9548908885000E-01  5.7660896584000E-01
   149  1.4800000000000E+00  4.0011097863000E-01  6.1063623956000E-01
   150  1.4900000000000E+00  4.0412749145000E-01  6.4468512511000E-01
   151  1.5000000000000E+00  4.0754832170000E-01  6.7868093996000E-01
   152  1.5100000000000E+00  4.1038406851000E-01  7.1255083515000E-01
   153  1.5200000000000E+00  4.1264589054000E-01  7.4622023201000E-01
   154  1.5300000000000E+00  4.1434568712000E-01  7.7961584297000E-01
   155  1.5400000000000E+00  4.1549593186000E-01  8.1266448953000E-01
   156  1.5500000000000E+00  4.1610974425000E-01  8.4529305485000E-01
   157  1.5600000000000E+00  4.1620072945000E-01  8.7743081308000E-01
   158  1.5700000000000E+00  4.1578313923000E-01  9.0900550116000E-01
   159  1.5800000000000E+00  4.1487152635000E-01  9.3994979638000E-01
   160  1.5900000000000E+00  4.1348117505000E-01  9.7019303522000E-01
   161  1.6000000000000E+00  4.1162741572000E-01  9.9967201923000E-01
   162  1.6100000000000E+00  4.0932642415000E-01  1.0283188353000E+00
   163  1.6200000000000E+00  4.0659418645000E-01  1.0560745749000E+00
   164  1.6300000000000E+00  4.0344757010000E-01  1.0828756200000E+00
   165  1.6400000000000E+00  3.9990312224000E-01  1.1086674121000E+00
   166  1.6500000000000E+00  3.9597823619000E-01  1.1333914907000E+00
   167  1.6600000000000E+00  3.9168987286000E-01  1.1569983939000E+00
   168  1.6700000000000E+00  3.8705581230000E-01  1.1794353209000E+00
   169  1.6800000000000E+00  3.8209327051000E-01  1.2006586530000E+00
   170  1.6900000000000E+00  3.7682029060000E-01  1.2206216175000E+00
   171  1.7000000000000E+00  3.7125417424000E-01  1.2392871632000E+00
   172  1.7100000000000E+00  3.6541312094000E-01  1.2566147878000E+00
   173  1.7200000000000E+00  3.5931433906000E-01  1.2725746846000E+00
   174  1.7300000000000E+00  3.5297609555000E-01  1.2871327537000E+00
   175  1.7400000000000E+00  3.4641531950000E-01  1.3002670307000E+00
   176  1.7500000000000E+00  3.3965027298000E-01  1.3119498642000E+00
   177  1.7600000000000E+00  3.3269741687000E-01  1.3221676117000E+00
   178  1.7700000000000E+00  3.2557494971000E-01  1.3308990661000E+00
   179  1.7800000000000E+00  3.1829877640000E-01  1.3381387126000E+00
   180  1.7900000000000E+00  3.1088668792000E-01  1.3438733058000E+00
   181  1.8000000000000E+00  3.0335421086000E-01  1.3481038506000E+00
   182  1.8100000000000E+00  2.9571840666000E-01  1.3508261450000E+00
   183  1.8200000000000E+00  2.8799448699000E-01  1.3520469868000E+00
   184  1.8300000000000E+00  2.8019854284000E-01  1.3517715836000E+00
   185  1.8400000000000E+00  2.7234551051000E-01  1.3500120711000E+00
   186  1.8500000000000E+00  2.6445028788000E-01  1.3467830990000E+00
   187  1.8600000000000E+00  2.5652758495000E-01  1.3421017845000E+00
   188  1.8700000000000E+00  2.4859090426000E-01  1.3359919199000E+00
   189  1.8800000000000E+00  2.4065476796000E-01  1.3284754378000E+00
   190  1.8900000000000E+00  2.3273117945000E-01  1.3195844188000E+00
   191  1.9000000000000E+00  2.2483431252000E-01  1.3093461517000E+00
   192  1.9100000000000E+00  2.1697505189000E-01  1.2977987983000E+00
   193  1.9200000000000E+00  2.0916619530000E-01  1.2849773651000E+00
   194  1.9300000000000E+00  2.0141844434000E-01  1.2709231256000E+00
   195  1.9400000000000E+00  1.9374273298000E-01  1.2556787357000E+00
   196  1.9500000000000E+00  1.8614970442000E-01  1.2392885931000E+00
   197  1.9600000000000E+00  1.7864828596000E-01  1.2218015026000E+00
   198  1.9700000000000E+00  1.7124909565000E-01  1.2032654485000E+00
   199  1.9800000000000E+00  1.6395942278000E-01  1.1837332631000E+00
   200  1.9900000000000E+00  1.5678862978000E-01  1.1632576571000E+00
   201  2.0000000000000E+00  1.4974372924000E-01  1.1418934976000E+00
   202  2.0100000000000E+00  1.4283198203000E-01  1.1196972342000E+00
   203  2.0200000000000E+00  1.3606055965000E-01  1.0967262699000E+00
   204  2.0300000000000E+00  1.2943457122000E-01  1.0730384547000E+00
   205  2.0400000000000E+00  1.2296103699000E-01  1.0486945448000E+00
   206  2.0500000000000E+00  1.1664379263000E-01  1.0237525948000E+00
   207  2.0600000000000E+00  1.1048806048000E-01  9.9827415674000E-01
   208  2.0700000000000E+00  1.0449797911000E-01  9.7231954863000E-01
   209  2.0800000000000E+00  9.8676477131000E-02  9.4594770113000E-01
   210  2.0900000000000E+00  9.3027961184000E-02  9.1922288858000E-01
   211  2.1000000000000E+00  8.7553802867000E-02  8.9220075112000E-01
   212  2.1100000000000E+00  8.2256881685000E-02  8.6494371015000E-01
   213  2.1200000000000E+00  7.7138875381000E-02  8.3751002767000E-01
   214  2.1300000000000E+00  7.2200507963000E-02  8.0995493049000E-01
   215  2.1400000000000E+00  6.7443783321000E-02  7.8234180581000E-01
   216  2.1500000000000E+00  6.2868049092000E-02  7.5471954048000E-01
   217  2.1600000000000E+00  5.8473829857000E-02  7.2714599543000E-01
   218  2.1700000000000E+00  5.4260910487000E-02  6.9967470277000E-01
   219  2.1800000000000E+00  5.0228007882000E-02  6.7235233290000E-01
   220  2.1900000000000E+00  4.6374841541000E-02  6.4523602857000E-01
   221  2.2000000000000E+00  4.2699355611000E-02  6.1836680690000E-01
   222  2.2100000000000E+00  3.9199866908000E-02  5.9179141221000E-01
   223  2.2200000000000E+00  3.5874704861000E-02  5.6555823455000E-01
   224  2.2300000000000E+00  3.2720935116000E-02  5.3970114288000E-01
   225  2.2400000000000E+00  2.9736276383000E-02  5.1426548554000E-01
   226  2.2500000000000E+00  2.6917699992000E-02  4.8928600248000E-01
   227  2.2600000000000E+00  2.4261782873000E-02  4.6479286953000E-01
   228  2.2700000000000E+00  2.1765517422000E-02  4.4082770557000E-01
   229  2.2800000000000E+00  1.9424906785000E-02  4.1741135692000E-01
   230  2.2900000000000E+00  1.7236117383000E-02  3.9457214867000E-01
   231  2.3000000000000E+00  1.5195277080000E-02  3.7234090248000E-01
   232  2.3100000000000E+00  1.3297941059000E-02  3.5073128517000E-01
   233  2.3200000000000E+00  1.1539775766000E-02  3.2976774226000E-01
   234  2.3300000000000E+00  9.9162595112000E-03  3.0946839037000E-01
   235  2.3400000000000E+00  8.4226509862000E-03  2.8984233889000E-01
   236  2.3500000000000E+00  7.0541282625000E-03  2.7090866134000E-01
   237  2.3600000000000E+00  5.8058052730000E-03  2.5267415833000E-01
   238  2.3700000000000E+00  4.6726910327000E-03  2.3514359786000E-01
   239  2.3800000000000E+00  3.6495402127000E-03  2.1833010162000E-01
   240  2.3900000000000E+00  2.7313420947000E-03  2.0223129720000E-01
   241  2.4000000000000E+00  1.9128978755000E-03  1.8684792447000E-01
   242  2.4100000000000E+00  1.1886439140000E-03  1.7218640524000E-01
   243  2.4200000000000E+00  5.5360909198000E-04  1.5823823683000E-01
   244  2.4300000000000E+00  2.4053248909000E-06  1.4500060476000E-01
   245  2.4400000000000E+00 -4.7062986739000E-04  1.3247237412000E-01
   246  2.4500000000000E+00 -8.7040369256000E-04  1.2064233721000E-01
   247  2.4600000000000E+00 -1.2024175107000E-03  1.0950410400000E-01
   248  2.4700000000000E+00 -1.4723492758000E-03  9.9051615773000E-02
   249  2.4800000000000E+00 -1.6847294525000E-03  8.9268157344000E-02
   250  2.4900000000000E+00 -1.8449745091000E-03  8.0142761733000E-02
   251  2.5000000000000E+00 -1.9585280945000E-03  7.1663663808000E-02
   252  2.5100000000000E+00 -2.0293256338000E-03  6.3808094158000E-02
   253  2.5200000000000E+00 -2.0624077737000E-03  5.6558775183000E-02
   254  2.5300000000000E+00 -2.0627676473000E-03  4.9897471234000E-02
   255  2.5400000000000E+00 -2.0337383881000E-03  4.3798432248000E-02
   256  2.5500000000000E+00 -1.9798257637000E-03  3.8239114927000E-02
   257  2.5600000000000E+00 -1.9055590248000E-03  3.3196416382000E-02
   258  2.5700000000000E+00 -1.8135794033000E-03  2.8643342963000E-02
   259  2.5800000000000E+00 -1.7077198946000E-03  2.4553785546000E-02
   260  2.5900000000000E+00 -1.5920832582000E-03  2.0901071614000E-02
   261  2.6000000000000E+00 -1.4685276436000E-03  1.7658725299000E-02
   262  2.6100000000000E+00 -1.3400857095000E-03  1.4799114711000E-02
   263  2.6200000000000E+00 -1.2104936312000E-03  1.2292703693000E-02
   264  2.6300000000000E+00 -1.0807501965000E-03  1.0115413683000E-02
   265  2.6400000000000E+00 -9.5297999655000E-04  8.2403583604000E-03
   266  2.6500000000000E+00 -8.3060437120000E-04  6.6353818831000E-03
   267  2.6600000000000E+00 -7.1372257925000E-04  5.2805958105000E-03
   268  2.6700000000000E+00 -6.0368478043000E-04  4.1510162553000E-03
   269  2.6800000000000E+00 -5.0296064413000E-04  3.2154463486000E-03
   270  2.6900000000000E+00 -4.1141546747000E-04  2.4561032297000E-03
   271  2.7000000000000E+00 -3.2937251425000E-04  1.8524717609000E-03
   272  2.7100000000000E+00 -2.5824522642000E-04  1.3769013691000E-03
   273  2.7200000000000E+00 -1.9780329580000E-04  1.0121859068000E-03
   274  2.7300000000000E+00 -1.4729036417000E-04  7.4425160888000E-04
   275  2.7400000000000E+00 -1.0697803640000E-04  5.5146733789000E-04
   276  2.7500000000000E+00 -7.6651829720000E-05  4.1556324708000E-04
   277  2.7600000000000E+00 -5.4457188761000E-05  3.3035686119000E-04
   278  2.7700000000000E+00 -3.9515871034000E-05  2.8325251672000E-04
   279  2.7800000000000E+00 -3.2045044874000E-05  2.6128898500000E-04
   280  2.7900000000000E+00 -2.8412092269000E-05  2.5192204992000E-04
   281  2.8000000000000E+00 -2.6482093658000E-05  2.4217826821000E-04
   282  2.8100000000000E+00 -1.9780966901000E-05  1.8566669945000E-04
   283  2.8200000000000E+00 -1.1450656660000E-05  1.1022205357000E-04
   284  2.8300000000000E+00 -3.8006611017000E-06  3.7310546184000E-05
   285  2.8400000000000E+00  8.9577199563000E-07 -8.2007203641000E-06
   286  2.8500000000000E+00  1.7429562162000E-06 -1.5956623567000E-05
   287  2.8600000000000E+00  1.2168965768000E-06 -1.1140590001000E-05
   288  2.8700000000000E+00  0.0000000000000E+00  0.0000000000000E+00
   289  2.8800000000000E+00  0.0000000000000E+00  0.0000000000000E+00
   290  2.8900000000000E+00  0.0000000000000E+00  0.0000000000000E+00
   291  2.9000000000000E+00  0.0000000000000E+00  0.0000000000000E+00
   292  2.9100000000000E+00  0.0000000000000E+00  0.0000000000000E+00
   293  2.9200000000000E+00  0.0000000000000E+00  0.0000000000000E+00
   294  2.9300000000000E+00  0.0000000000000E+00  0.0000000000000E+00
   295  2.9400000000000E+00  0.0000000000000E+00  0.0000000000000E+00
   296  2.9500000000000E+00  0.0000000000000E+00  0.0000000000000E+00
   297  2.9600000000000E+00  0.0000000000000E+00  0.0000000000000E+00
   298  2.9700000000000E+00  0.0000000000000E+00  0.0000000000000E+00
   299  2.9800000000000E+00  0.0000000000000E+00  0.0000000000000E+00
   300  2.9900000000000E+00  0.0000000000000E+00  0.0000000000000E+00
   301  3.0000000000000E+00  0.0000000000000E+00  0.0000000000000E+00
   302  3.0100000000000E+00  0.0000000000000E+00  0.0000000000000E+00
   303  3.0200000000000E+00  0.0000000000000E+00  0.0000000000000E+00
   304  3.0300000000000E+00  0.0000000000000E+00  0.0000000000000E+00
   305  3.0400000000000E+00  0.0000000000000E+00  0.0000000000000E+00
   306  3.0500000000000E+00  0.0000000000000E+00  0.0000000000000E+00
   307  3.0600000000000E+00  0.0000000000000E+00  0.0000000000000E+00
   308  3.0700000000000E+00  0.0000000000000E+00  0.0000000000000E+00
   309  3.0800000000000E+00  0.0000000000000E+00  0.0000000000000E+00
   310  3.0900000000000E+00  0.0000000000000E+00  0.0000000000000E+00
   311  3.1000000000000E+00  0.0000000000000E+00  0.0000000000000E+00
   312  3.1100000000000E+00  0.0000000000000E+00  0.0000000000000E+00
   313  3.1200000000000E+00  0.0000000000000E+00  0.0000000000000E+00
   314  3.1300000000000E+00  0.0000000000000E+00  0.0000000000000E+00
   315  3.1400000000000E+00  0.0000000000000E+00  0.0000000000000E+00
   316  3.1500000000000E+00  0.0000000000000E+00  0.0000000000000E+00
   317  3.1600000000000E+00  0.0000000000000E+00  0.0000000000000E+00
   318  3.1700000000000E+00  0.0000000000000E+00  0.0000000000000E+00
   319  3.1800000000000E+00  0.0000000000000E+00  0.0000000000000E+00
   320  3.1900000000000E+00  0.0000000000000E+00  0.0000000000000E+00
   321  3.2000000000000E+00  0.0000000000000E+00  0.0000000000000E+00
   322  3.2100000000000E+00  0.0000000000000E+00  0.0000000000000E+00
   323  3.2200000000000E+00  0.0000000000000E+00  0.0000000000000E+00
   324  3.2300000000000E+00  0.0000000000000E+00  0.0000000000000E+00
   325  3.2400000000000E+00  0.0000000000000E+00  0.0000000000000E+00
   326  3.2500000000000E+00  0.0000000000000E+00  0.0000000000000E+00
   327  3.2600000000000E+00  0.0000000000000E+00  0.0000000000000E+00
   328  3.2700000000000E+00  0.0000000000000E+00  0.0000000000000E+00
   329  3.2800000000000E+00  0.0000000000000E+00  0.0000000000000E+00
   330  3.2900000000000E+00  0.0000000000000E+00  0.0000000000000E+00
   331  3.3000000000000E+00  0.0000000000000E+00  0.0000000000000E+00
   332  3.3100000000000E+00  0.0000000000000E+00  0.0000000000000E+00
   333  3.3200000000000E+00  0.0000000000000E+00  0.0000000000000E+00
   334  3.3300000000000E+00  0.0000000000000E+00  0.0000000000000E+00
   335  3.3400000000000E+00  0.0000000000000E+00  0.0000000000000E+00
   336  3.3500000000000E+00  0.0000000000000E+00  0.0000000000000E+00
   337  3.3600000000000E+00  0.0000000000000E+00  0.0000000000000E+00
   338  3.3700000000000E+00  0.0000000000000E+00  0.0000000000000E+00
   339  3.3800000000000E+00  0.0000000000000E+00  0.0000000000000E+00
   340  3.3900000000000E+00  0.0000000000000E+00  0.0000000000000E+00
   341  3.4000000000000E+00  0.0000000000000E+00  0.0000000000000E+00
   342  3.4100000000000E+00  0.0000000000000E+00  0.0000000000000E+00
   343  3.4200000000000E+00  0.0000000000000E+00  0.0000000000000E+00
   344  3.4300000000000E+00  0.0000000000000E+00  0.0000000000000E+00
   345  3.4400000000000E+00  0.0000000000000E+00  0.0000000000000E+00
   346  3.4500000000000E+00  0.0000000000000E+00  0.0000000000000E+00
   347  3.4600000000000E+00  0.0000000000000E+00  0.0000000000000E+00
   348  3.4700000000000E+00  0.0000000000000E+00  0.0000000000000E+00
   349  3.4800000000000E+00  0.0000000000000E+00  0.0000000000000E+00
   350  3.4900000000000E+00  0.0000000000000E+00  0.0000000000000E+00
   351  3.5000000000000E+00  0.0000000000000E+00  0.0000000000000E+00
   352  3.5100000000000E+00  0.0000000000000E+00  0.0000000000000E+00
   353  3.5200000000000E+00  0.0000000000000E+00  0.0000000000000E+00
   354  3.5300000000000E+00  0.0000000000000E+00  0.0000000000000E+00
   355  3.5400000000000E+00  0.0000000000000E+00  0.0000000000000E+00
   356  3.5500000000000E+00  0.0000000000000E+00  0.0000000000000E+00
   357  3.5600000000000E+00  0.0000000000000E+00  0.0000000000000E+00
   358  3.5700000000000E+00  0.0000000000000E+00  0.0000000000000E+00
   359  3.5800000000000E+00  0.0000000000000E+00  0.0000000000000E+00
   360  3.5900000000000E+00  0.0000000000000E+00  0.0000000000000E+00
   361  3.6000000000000E+00  0.0000000000000E+00  0.0000000000000E+00
   362  3.6100000000000E+00  0.0000000000000E+00  0.0000000000000E+00
   363  3.6200000000000E+00  0.0000000000000E+00  0.0000000000000E+00
   364  3.6300000000000E+00  0.0000000000000E+00  0.0000000000000E+00
   365  3.6400000000000E+00  0.0000000000000E+00  0.0000000000000E+00
   366  3.6500000000000E+00  0.0000000000000E+00  0.0000000000000E+00
   367  3.6600000000000E+00  0.0000000000000E+00  0.0000000000000E+00
   368  3.6700000000000E+00  0.0000000000000E+00  0.0000000000000E+00
   369  3.6800000000000E+00  0.0000000000000E+00  0.0000000000000E+00
   370  3.6900000000000E+00  0.0000000000000E+00  0.0000000000000E+00
   371  3.7000000000000E+00  0.0000000000000E+00  0.0000000000000E+00
   372  3.7100000000000E+00  0.0000000000000E+00  0.0000000000000E+00
   373  3.7200000000000E+00  0.0000000000000E+00  0.0000000000000E+00
   374  3.7300000000000E+00  0.0000000000000E+00  0.0000000000000E+00
   375  3.7400000000000E+00  0.0000000000000E+00  0.0000000000000E+00
   376  3.7500000000000E+00  0.0000000000000E+00  0.0000000000000E+00
   377  3.7600000000000E+00  0.0000000000000E+00  0.0000000000000E+00
   378  3.7700000000000E+00  0.0000000000000E+00  0.0000000000000E+00
   379  3.7800000000000E+00  0.0000000000000E+00  0.0000000000000E+00
   380  3.7900000000000E+00  0.0000000000000E+00  0.0000000000000E+00
   381  3.8000000000000E+00  0.0000000000000E+00  0.0000000000000E+00
   382  3.8100000000000E+00  0.0000000000000E+00  0.0000000000000E+00
   383  3.8200000000000E+00  0.0000000000000E+00  0.0000000000000E+00
   384  3.8300000000000E+00  0.0000000000000E+00  0.0000000000000E+00
   385  3.8400000000000E+00  0.0000000000000E+00  0.0000000000000E+00
   386  3.8500000000000E+00  0.0000000000000E+00  0.0000000000000E+00
   387  3.8600000000000E+00  0.0000000000000E+00  0.0000000000000E+00
   388  3.8700000000000E+00  0.0000000000000E+00  0.0000000000000E+00
   389  3.8800000000000E+00  0.0000000000000E+00  0.0000000000000E+00
   390  3.8900000000000E+00  0.0000000000000E+00  0.0000000000000E+00
   391  3.9000000000000E+00  0.0000000000000E+00  0.0000000000000E+00
   392  3.9100000000000E+00  0.0000000000000E+00  0.0000000000000E+00
   393  3.9200000000000E+00  0.0000000000000E+00  0.0000000000000E+00
   394  3.9300000000000E+00  0.0000000000000E+00  0.0000000000000E+00
   395  3.9400000000000E+00  0.0000000000000E+00  0.0000000000000E+00
   396  3.9500000000000E+00  0.0000000000000E+00  0.0000000000000E+00
   397  3.9600000000000E+00  0.0000000000000E+00  0.0000000000000E+00
   398  3.9700000000000E+00  0.0000000000000E+00  0.0000000000000E+00
   399  3.9800000000000E+00  0.0000000000000E+00  0.0000000000000E+00
   400  3.9900000000000E+00  0.0000000000000E+00  0.0000000000000E+00
   401  4.0000000000000E+00  0.0000000000000E+00  0.0000000000000E+00
   402  4.0100000000000E+00  0.0000000000000E+00  0.0000000000000E+00
   403  4.0200000000000E+00  0.0000000000000E+00  0.0000000000000E+00
   404  4.0300000000000E+00  0.0000000000000E+00  0.0000000000000E+00
   405  4.0400000000000E+00  0.0000000000000E+00  0.0000000000000E+00
   406  4.0500000000000E+00  0.0000000000000E+00  0.0000000000000E+00
   407  4.0600000000000E+00  0.0000000000000E+00  0.0000000000000E+00
   408  4.0700000000000E+00  0.0000000000000E+00  0.0000000000000E+00
   409  4.0800000000000E+00  0.0000000000000E+00  0.0000000000000E+00
   410  4.0900000000000E+00  0.0000000000000E+00  0.0000000000000E+00
   411  4.1000000000000E+00  0.0000000000000E+00  0.0000000000000E+00
   412  4.1100000000000E+00  0.0000000000000E+00  0.0000000000000E+00
   413  4.1200000000000E+00  0.0000000000000E+00  0.0000000000000E+00
   414  4.1300000000000E+00  0.0000000000000E+00  0.0000000000000E+00
   415  4.1400000000000E+00  0.0000000000000E+00  0.0000000000000E+00
   416  4.1500000000000E+00  0.0000000000000E+00  0.0000000000000E+00
   417  4.1600000000000E+00  0.0000000000000E+00  0.0000000000000E+00
   418  4.1700000000000E+00  0.0000000000000E+00  0.0000000000000E+00
   419  4.1800000000000E+00  0.0000000000000E+00  0.0000000000000E+00
   420  4.1900000000000E+00  0.0000000000000E+00  0.0000000000000E+00
   421  4.2000000000000E+00  0.0000000000000E+00  0.0000000000000E+00
   422  4.2100000000000E+00  0.0000000000000E+00  0.0000000000000E+00
   423  4.2200000000000E+00  0.0000000000000E+00  0.0000000000000E+00