Rb   ONCVPSP-2.1.1   r_core=    3.18390 2.99956 2.89411
    37.0000   9.0000   150105   zatom,zion,pspd
    8   11   2   4   600   0   pspcod,pspxc,lmax,lloc,mmax,r2well
    5.99000000   0.00000000   0.00000000   rchrg fchrg qchrg
    2   2   2   0   0   nproj
    1   1   extension_switch
       0                         1.3290177992500E+00 -7.1250129390000E-02
     1  0.0000000000000E+00  0.0000000000000E+00  0.0000000000000E+00
     2  1.0000000000000E-02 -3.3958956556000E-02  2.1316580736000E-02
     3  2.0000000000000E-02 -6.7890493014000E-02  4.2601919680000E-02
     4  3.0000000000000E-02 -1.0176721539000E-01  6.3824813307000E-02
     5  4.0000000000000E-02 -1.3556178192000E-01  8.4954134607000E-02
     6  5.0000000000000E-02 -1.6924692906000E-01  1.0595887129000E-01
     7  6.0000000000000E-02 -2.0279549751000E-01  1.2680816390000E-01
     8  7.0000000000000E-02 -2.3618045804000E-01  1.4747134392000E-01
     9  8.0000000000000E-02 -2.6937493727000E-01  1.6791797163000E-01
    10  9.0000000000000E-02 -3.0235224323000E-01  1.8811787397000E-01
    11  1.0000000000000E-01 -3.3508589083000E-01  2.0804118216000E-01
    12  1.1000000000000E-01 -3.6754962707000E-01  2.2765836916000E-01
    13  1.2000000000000E-01 -3.9971745607000E-01  2.4694028693000E-01
    14  1.3000000000000E-01 -4.3156366383000E-01  2.6585820346000E-01
    15  1.4000000000000E-01 -4.6306284273000E-01  2.8438383951000E-01
    16  1.5000000000000E-01 -4.9418991575000E-01  3.0248940509000E-01
    17  1.6000000000000E-01 -5.2492016037000E-01  3.2014763564000E-01
    18  1.7000000000000E-01 -5.5522923213000E-01  3.3733182784000E-01
    19  1.8000000000000E-01 -5.8509318781000E-01  3.5401587502000E-01
    20  1.9000000000000E-01 -6.1448850827000E-01  3.7017430223000E-01
    21  2.0000000000000E-01 -6.4339212085000E-01  3.8578230084000E-01
    22  2.1000000000000E-01 -6.7178142134000E-01  4.0081576264000E-01
    23  2.2000000000000E-01 -6.9963429552000E-01  4.1525131349000E-01
    24  2.3000000000000E-01 -7.2692914020000E-01  4.2906634636000E-01
    25  2.4000000000000E-01 -7.5364488382000E-01  4.4223905391000E-01
    26  2.5000000000000E-01 -7.7976100643000E-01  4.5474846028000E-01
    27  2.6000000000000E-01 -8.0525755926000E-01  4.6657445244000E-01
    28  2.7000000000000E-01 -8.3011518357000E-01  4.7769781052000E-01
    29  2.8000000000000E-01 -8.5431512917000E-01  4.8810023791000E-01
    30  2.9000000000000E-01 -8.7783927210000E-01  4.9776439006000E-01
    31  3.0000000000000E-01 -9.0067013176000E-01  5.0667390277000E-01
    32  3.1000000000000E-01 -9.2279088745000E-01  5.1481341941000E-01
    33  3.2000000000000E-01 -9.4418539436000E-01  5.2216861766000E-01
    34  3.3000000000000E-01 -9.6483819864000E-01  5.2872623476000E-01
    35  3.4000000000000E-01 -9.8473455170000E-01  5.3447409167000E-01
    36  3.5000000000000E-01 -1.0038604246000E+00  5.3940111748000E-01
    37  3.6000000000000E-01 -1.0222025205000E+00  5.4349737044000E-01
    38  3.7000000000000E-01 -1.0397482873000E+00  5.4675406034000E-01
    39  3.8000000000000E-01 -1.0564859293000E+00  5.4916356792000E-01
    40  3.9000000000000E-01 -1.0724044178000E+00  5.5071946359000E-01
    41  4.0000000000000E-01 -1.0874935010000E+00  5.5141652495000E-01
    42  4.1000000000000E-01 -1.1017437138000E+00  5.5125075338000E-01
    43  4.2000000000000E-01 -1.1151463859000E+00  5.5021938837000E-01
    44  4.3000000000000E-01 -1.1276936491000E+00  5.4832092098000E-01
    45  4.4000000000000E-01 -1.1393784447000E+00  5.4555510568000E-01
    46  4.5000000000000E-01 -1.1501945289000E+00  5.4192297071000E-01
    47  4.6000000000000E-01 -1.1601364781000E+00  5.3742682673000E-01
    48  4.7000000000000E-01 -1.1691996933000E+00  5.3207027455000E-01
    49  4.8000000000000E-01 -1.1773804033000E+00  5.2585821015000E-01
    50  4.9000000000000E-01 -1.1846756674000E+00  5.1879682857000E-01
    51  5.0000000000000E-01 -1.1910833762000E+00  5.1089362554000E-01
    52  5.1000000000000E-01 -1.1966022535000E+00  5.0215739893000E-01
    53  5.2000000000000E-01 -1.2012318558000E+00  4.9259824682000E-01
    54  5.3000000000000E-01 -1.2049725702000E+00  4.8222756289000E-01
    55  5.4000000000000E-01 -1.2078256144000E+00  4.7105803354000E-01
    56  5.5000000000000E-01 -1.2097930321000E+00  4.5910362874000E-01
    57  5.6000000000000E-01 -1.2108776902000E+00  4.4637959397000E-01
    58  5.7000000000000E-01 -1.2110832741000E+00  4.3290243906000E-01
    59  5.8000000000000E-01 -1.2104142819000E+00  4.1868992505000E-01
    60  5.9000000000000E-01 -1.2088760184000E+00  4.0376104925000E-01
    61  6.0000000000000E-01 -1.2064745875000E+00  3.8813602818000E-01
    62  6.1000000000000E-01 -1.2032168842000E+00  3.7183627917000E-01
    63  6.2000000000000E-01 -1.1991105856000E+00  3.5488439740000E-01
    64  6.3000000000000E-01 -1.1941641410000E+00  3.3730413570000E-01
    65  6.4000000000000E-01 -1.1883867614000E+00  3.1912037707000E-01
    66  6.5000000000000E-01 -1.1817884071000E+00  3.0035910693000E-01
    67  6.6000000000000E-01 -1.1743797763000E+00  2.8104738703000E-01
    68  6.7000000000000E-01 -1.1661722923000E+00  2.6121332318000E-01
    69  6.8000000000000E-01 -1.1571780868000E+00  2.4088602707000E-01
    70  6.9000000000000E-01 -1.1474099878000E+00  2.2009558702000E-01
    71  7.0000000000000E-01 -1.1368815031000E+00  1.9887302934000E-01
    72  7.1000000000000E-01 -1.1256068060000E+00  1.7725028257000E-01
    73  7.2000000000000E-01 -1.1136007124000E+00  1.5526012390000E-01
    74  7.3000000000000E-01 -1.1008786682000E+00  1.3293614845000E-01
    75  7.4000000000000E-01 -1.0874567295000E+00  1.1031272084000E-01
    76  7.5000000000000E-01 -1.0733515431000E+00  8.7424928571000E-02
    77  7.6000000000000E-01 -1.0585803266000E+00  6.4308533701000E-02
    78  7.7000000000000E-01 -1.0431608480000E+00  4.0999922905000E-02
    79  7.8000000000000E-01 -1.0271114065000E+00  1.7536060385000E-02
    80  7.9000000000000E-01 -1.0104508045000E+00 -6.0455797196000E-03
    81  8.0000000000000E-01 -9.9319833173000E-01 -2.9707053537000E-02
    82  8.1000000000000E-01 -9.7537374003000E-01 -5.3410008190000E-02
    83  8.2000000000000E-01 -9.5699722028000E-01 -7.7115739218000E-02
    84  8.3000000000000E-01 -9.3808937848000E-01 -1.0078524924000E-01
    85  8.4000000000000E-01 -9.1867121146000E-01 -1.2437930780000E-01
    86  8.5000000000000E-01 -8.9876408217000E-01 -1.4785851225000E-01
    87  8.6000000000000E-01 -8.7838969462000E-01 -1.7118334967000E-01
    88  8.7000000000000E-01 -8.5757006836000E-01 -1.9431425962000E-01
    89  8.8000000000000E-01 -8.3632751277000E-01 -2.1721169770000E-01
    90  8.9000000000000E-01 -8.1468460093000E-01 -2.3983619972000E-01
    91  9.0000000000000E-01 -7.9266414335000E-01 -2.6214844650000E-01
    92  9.1000000000000E-01 -7.7028916137000E-01 -2.8410932901000E-01
    93  9.2000000000000E-01 -7.4758286741000E-01 -3.0567999697000E-01
    94  9.3000000000000E-01 -7.2456861981000E-01 -3.2682196938000E-01
    95  9.4000000000000E-01 -7.0126991079000E-01 -3.4749716351000E-01
    96  9.5000000000000E-01 -6.7771033608000E-01 -3.6766796898000E-01
    97  9.6000000000000E-01 -6.5391356715000E-01 -3.8729731477000E-01
    98  9.7000000000000E-01 -6.2990332415000E-01 -4.0634873452000E-01
    99  9.8000000000000E-01 -6.0570334890000E-01 -4.2478643122000E-01
   100  9.9000000000000E-01 -5.8133737802000E-01 -4.4257534114000E-01
   101  1.0000000000000E+00 -5.5682912947000E-01 -4.5968116494000E-01
   102  1.0100000000000E+00 -5.3220224905000E-01 -4.7607049566000E-01
   103  1.0200000000000E+00 -5.0748028403000E-01 -4.9171087968000E-01
   104  1.0300000000000E+00 -4.8268667920000E-01 -5.0657082311000E-01
   105  1.0400000000000E+00 -4.5784474130000E-01 -5.2061987452000E-01
   106  1.0500000000000E+00 -4.3297761389000E-01 -5.3382868144000E-01
   107  1.0600000000000E+00 -4.0810829396000E-01 -5.4616894754000E-01
   108  1.0700000000000E+00 -3.8325947999000E-01 -5.5761378977000E-01
   109  1.0800000000000E+00 -3.5845366444000E-01 -5.6813751144000E-01
   110  1.0900000000000E+00 -3.3371307774000E-01 -5.7771573001000E-01
   111  1.1000000000000E+00 -3.0905968993000E-01 -5.8632536779000E-01
   112  1.1100000000000E+00 -2.8451514769000E-01 -5.9394479362000E-01
   113  1.1200000000000E+00 -2.6010070586000E-01 -6.0055397130000E-01
   114  1.1300000000000E+00 -2.3583729807000E-01 -6.0613428689000E-01
   115  1.1400000000000E+00 -2.1174551590000E-01 -6.1066859118000E-01
   116  1.1500000000000E+00 -1.8784553926000E-01 -6.1414135063000E-01
   117  1.1600000000000E+00 -1.6415704684000E-01 -6.1653883313000E-01
   118  1.1700000000000E+00 -1.4069932856000E-01 -6.1784884354000E-01
   119  1.1800000000000E+00 -1.1749129664000E-01 -6.1806069598000E-01
   120  1.1900000000000E+00 -9.4551257382000E-02 -6.1716569922000E-01
   121  1.2000000000000E+00 -7.1897030158000E-02 -6.1515687457000E-01
   122  1.2100000000000E+00 -4.9546001474000E-02 -6.1202883298000E-01
   123  1.2200000000000E+00 -2.7515024834000E-02 -6.0777797993000E-01
   124  1.2300000000000E+00 -5.8202754574000E-03 -6.0240278558000E-01
   125  1.2400000000000E+00  1.5522519060000E-02 -5.9590329341000E-01
   126  1.2500000000000E+00  3.6498127416000E-02 -5.8828122210000E-01
   127  1.2600000000000E+00  5.7092133817000E-02 -5.7954055651000E-01
   128  1.2700000000000E+00  7.7290572710000E-02 -5.6968680983000E-01
   129  1.2800000000000E+00  9.7079990882000E-02 -5.5872715449000E-01
   130  1.2900000000000E+00  1.1644782142000E-01 -5.4667106298000E-01
   131  1.3000000000000E+00  1.3538193480000E-01 -5.3352946372000E-01
   132  1.3100000000000E+00  1.5387079550000E-01 -5.1931503270000E-01
   133  1.3200000000000E+00  1.7190374592000E-01 -5.0404260679000E-01
   134  1.3300000000000E+00  1.8947053962000E-01 -4.8772839511000E-01
   135  1.3400000000000E+00  2.0656168038000E-01 -4.7039052017000E-01
   136  1.3500000000000E+00  2.2316844684000E-01 -4.5204896371000E-01
   137  1.3600000000000E+00  2.3928250329000E-01 -4.3272502313000E-01
   138  1.3700000000000E+00  2.5489648692000E-01 -4.1244207056000E-01
   139  1.3800000000000E+00  2.7000356438000E-01 -3.9122489121000E-01
   140  1.3900000000000E+00  2.8459745877000E-01 -3.6909977228000E-01
   141  1.4000000000000E+00  2.9867285867000E-01 -3.4609482646000E-01
   142  1.4100000000000E+00  3.1222478854000E-01 -3.2223935493000E-01
   143  1.4200000000000E+00  3.2524919331000E-01 -2.9756435030000E-01
   144  1.4300000000000E+00  3.3774259600000E-01 -2.7210209163000E-01
   145  1.4400000000000E+00  3.4970206236000E-01 -2.4588620958000E-01
   146  1.4500000000000E+00  3.6112558928000E-01 -2.1895168361000E-01
   147  1.4600000000000E+00  3.7201146854000E-01 -1.9133467661000E-01
   148  1.4700000000000E+00  3.8235898065000E-01 -1.6307255143000E-01
   149  1.4800000000000E+00  3.9216779965000E-01 -1.3420376323000E-01
   150  1.4900000000000E+00  4.0143832429000E-01 -1.0476785861000E-01
   151  1.5000000000000E+00  4.1017160715000E-01 -7.4805229294000E-02
   152  1.5100000000000E+00  4.1836915678000E-01 -4.4357443017000E-02
   153  1.5200000000000E+00  4.2603332582000E-01 -1.3466455229000E-02
   154  1.5300000000000E+00  4.3316674329000E-01  1.7824371779000E-02
   155  1.5400000000000E+00  4.3977293953000E-01  4.9471769519000E-02
   156  1.5500000000000E+00  4.4585572724000E-01  8.1431101648000E-02
   157  1.5600000000000E+00  4.5141967217000E-01  1.1365784195000E-01
   158  1.5700000000000E+00  4.5646973319000E-01  1.4610652874000E-01
   159  1.5800000000000E+00  4.6101147726000E-01  1.7873161846000E-01
   160  1.5900000000000E+00  4.6505092694000E-01  2.1148720963000E-01
   161  1.6000000000000E+00  4.6859461353000E-01  2.4432700875000E-01
   162  1.6100000000000E+00  4.7164953616000E-01  2.7720504347000E-01
   163  1.6200000000000E+00  4.7422314791000E-01  3.1007456529000E-01
   164  1.6300000000000E+00  4.7632333590000E-01  3.4288987847000E-01
   165  1.6400000000000E+00  4.7795842501000E-01  3.7560410040000E-01
   166  1.6500000000000E+00  4.7913710278000E-01  4.0817213442000E-01
   167  1.6600000000000E+00  4.7986850763000E-01  4.4054730854000E-01
   168  1.6700000000000E+00  4.8016204247000E-01  4.7268541913000E-01
   169  1.6800000000000E+00  4.8002759230000E-01  5.0454037167000E-01
   170  1.6900000000000E+00  4.7947519450000E-01  5.3606911648000E-01
   171  1.7000000000000E+00  4.7851540458000E-01  5.6722652517000E-01
   172  1.7100000000000E+00  4.7715881910000E-01  5.9797092432000E-01
   173  1.7200000000000E+00  4.7541657832000E-01  6.2825856271000E-01
   174  1.7300000000000E+00  4.7329977031000E-01  6.5804932064000E-01
   175  1.7400000000000E+00  4.7082002373000E-01  6.8730125855000E-01
   176  1.7500000000000E+00  4.6798886000000E-01  7.1597593747000E-01
   177  1.7600000000000E+00  4.6481828843000E-01  7.4403368689000E-01
   178  1.7700000000000E+00  4.6132021717000E-01  7.7143782232000E-01
   179  1.7800000000000E+00  4.5750691633000E-01  7.9815141856000E-01
   180  1.7900000000000E+00  4.5339064693000E-01  8.2413956853000E-01
   181  1.8000000000000E+00  4.4898380846000E-01  8.4936857675000E-01
   182  1.8100000000000E+00  4.4429899361000E-01  8.7380529661000E-01
   183  1.8200000000000E+00  4.3934859041000E-01  8.9741973481000E-01
   184  1.8300000000000E+00  4.3414551215000E-01  9.2018047048000E-01
   185  1.8400000000000E+00  4.2870199046000E-01  9.4206164080000E-01
   186  1.8500000000000E+00  4.2303125204000E-01  9.6303353383000E-01
   187  1.8600000000000E+00  4.1714532150000E-01  9.8307431746000E-01
   188  1.8700000000000E+00  4.1105745775000E-01  1.0021573540000E+00
   189  1.8800000000000E+00  4.0477970283000E-01  1.0202634192000E+00
   190  1.8900000000000E+00  3.9832498946000E-01  1.0373704627000E+00
   191  1.9000000000000E+00  3.9170555390000E-01  1.0534609380000E+00
   192  1.9100000000000E+00  3.8493376783000E-01  1.0685180857000E+00
   193  1.9200000000000E+00  3.7802212138000E-01  1.0825258056000E+00
   194  1.9300000000000E+00  3.7098224593000E-01  1.0954729562000E+00
   195  1.9400000000000E+00  3.6382692366000E-01  1.1073448109000E+00
   196  1.9500000000000E+00  3.5656711604000E-01  1.1181351405000E+00
   197  1.9600000000000E+00  3.4921526683000E-01  1.1278330840000E+00
   198  1.9700000000000E+00  3.4178232426000E-01  1.1364345013000E+00
   199  1.9800000000000E+00  3.3427979456000E-01  1.1439343618000E+00
   200  1.9900000000000E+00  3.2671894426000E-01  1.1503294637000E+00
   201  2.0000000000000E+00  3.1911007417000E-01  1.1556210377000E+00
   202  2.0100000000000E+00  3.1146483225000E-01  1.1598068194000E+00
   203  2.0200000000000E+00  3.0379256672000E-01  1.1628929749000E+00
   204  2.0300000000000E+00  2.9610420220000E-01  1.1648817251000E+00
   205  2.0400000000000E+00  2.8840928613000E-01  1.1657803324000E+00
   206  2.0500000000000E+00  2.8071730639000E-01  1.1655972424000E+00
   207  2.0600000000000E+00  2.7303830495000E-01  1.1643402087000E+00
   208  2.0700000000000E+00  2.6538040610000E-01  1.1620230887000E+00
   209  2.0800000000000E+00  2.5775336014000E-01  1.1586564329000E+00
   210  2.0900000000000E+00  2.5016500296000E-01  1.1542563358000E+00
   211  2.1000000000000E+00  2.4262358338000E-01  1.1488388300000E+00
   212  2.1100000000000E+00  2.3513756081000E-01  1.1424202522000E+00
   213  2.1200000000000E+00  2.2771358182000E-01  1.1350217028000E+00
   214  2.1300000000000E+00  2.2035989391000E-01  1.1266618597000E+00
   215  2.1400000000000E+00  2.1308277474000E-01  1.1173639155000E+00
   216  2.1500000000000E+00  2.0588881149000E-01  1.1071513512000E+00
   217  2.1600000000000E+00  1.9878504250000E-01  1.0960476298000E+00
   218  2.1700000000000E+00  1.9177642327000E-01  1.0840803025000E+00
   219  2.1800000000000E+00  1.8486942773000E-01  1.0712754892000E+00
   220  2.1900000000000E+00  1.7806903206000E-01  1.0576619866000E+00
   221  2.2000000000000E+00  1.7137979918000E-01  1.0432698886000E+00
   222  2.2100000000000E+00  1.6480756093000E-01  1.0281286879000E+00
   223  2.2200000000000E+00  1.5835546183000E-01  1.0122711990000E+00
   224  2.2300000000000E+00  1.5202799033000E-01  9.9572982674000E-01
   225  2.2400000000000E+00  1.4582911998000E-01  9.7853803052000E-01
   226  2.2500000000000E+00  1.3976144882000E-01  9.6073086129000E-01
   227  2.2600000000000E+00  1.3382889506000E-01  9.4234352252000E-01
   228  2.2700000000000E+00  1.2803368103000E-01  9.2341241207000E-01
   229  2.2800000000000E+00  1.2237790372000E-01  9.0397469698000E-01
   230  2.2900000000000E+00  1.1686475710000E-01  8.8406826709000E-01
   231  2.3000000000000E+00  1.1149495000000E-01  8.6373152500000E-01
   232  2.3100000000000E+00  1.0627027520000E-01  8.4300379555000E-01
   233  2.3200000000000E+00  1.0119241920000E-01  8.2192509207000E-01
   234  2.3300000000000E+00  9.6261495171000E-02  8.0053544418000E-01
   235  2.3400000000000E+00  9.1478651096000E-02  7.7887625572000E-01
   236  2.3500000000000E+00  8.6844208466000E-02  7.5698899294000E-01
   237  2.3600000000000E+00  8.2357704044000E-02  7.3491521922000E-01
   238  2.3700000000000E+00  7.8019593280000E-02  7.1269841877000E-01
   239  2.3800000000000E+00  7.3829008636000E-02  6.9038076230000E-01
   240  2.3900000000000E+00  6.9784915170000E-02  6.6800493602000E-01
   241  2.4000000000000E+00  6.5887001413000E-02  6.4561870201000E-01
   242  2.4100000000000E+00  6.2133473089000E-02  6.2325995255000E-01
   243  2.4200000000000E+00  5.8522773996000E-02  6.0096944740000E-01
   244  2.4300000000000E+00  5.5053808222000E-02  5.7879688948000E-01
   245  2.4400000000000E+00  5.1724185049000E-02  5.5677089251000E-01
   246  2.4500000000000E+00  4.8531914716000E-02  5.3492916481000E-01
   247  2.4600000000000E+00  4.5475130320000E-02  5.1331506156000E-01
   248  2.4700000000000E+00  4.2551151589000E-02  4.9195237440000E-01
   249  2.4800000000000E+00  3.9757536449000E-02  4.7087429685000E-01
   250  2.4900000000000E+00  3.7091839745000E-02  4.5011767941000E-01
   251  2.5000000000000E+00  3.4551160308000E-02  4.2970150016000E-01
   252  2.5100000000000E+00  3.2132683203000E-02  4.0965389865000E-01
   253  2.5200000000000E+00  2.9833533988000E-02  3.9000576275000E-01
   254  2.5300000000000E+00  2.7650666986000E-02  3.7077101136000E-01
   255  2.5400000000000E+00  2.5580986812000E-02  3.5197227654000E-01
   256  2.5500000000000E+00  2.3621298894000E-02  3.3363512422000E-01
   257  2.5600000000000E+00  2.1768494734000E-02  3.1576825074000E-01
   258  2.5700000000000E+00  2.0019301132000E-02  2.9838844360000E-01
   259  2.5800000000000E+00  1.8370274218000E-02  2.8151661006000E-01
   260  2.5900000000000E+00  1.6818328170000E-02  2.6515618814000E-01
   261  2.6000000000000E+00  1.5360121722000E-02  2.4931793593000E-01
   262  2.6100000000000E+00  1.3991998638000E-02  2.3401870209000E-01
   263  2.6200000000000E+00  1.2710981773000E-02  2.1925680197000E-01
   264  2.6300000000000E+00  1.1513744337000E-02  2.0503750059000E-01
   265  2.6400000000000E+00  1.0396519775000E-02  1.9137245089000E-01
   266  2.6500000000000E+00  9.3564296583000E-03  1.7825677136000E-01
   267  2.6600000000000E+00  8.3902457254000E-03  1.6569041601000E-01
   268  2.6700000000000E+00  7.4942596974000E-03  1.5367866216000E-01
   269  2.6800000000000E+00  6.6655889122000E-03  1.4221538666000E-01
   270  2.6900000000000E+00  5.9012223421000E-03  1.3129518373000E-01
   271  2.7000000000000E+00  5.1976312762000E-03  1.2091720944000E-01
   272  2.7100000000000E+00  4.5518534149000E-03  1.1107453730000E-01
   273  2.7200000000000E+00  3.9611887306000E-03  1.0175703647000E-01
   274  2.7300000000000E+00  3.4224056409000E-03  9.2958297633000E-02
   275  2.7400000000000E+00  2.9323798405000E-03  8.4670587986000E-02
   276  2.7500000000000E+00  2.4887994662000E-03  7.6879991631000E-02
   277  2.7600000000000E+00  2.0888357183000E-03  6.9575454625000E-02
   278  2.7700000000000E+00  1.7291321897000E-03  6.2747907441000E-02
   279  2.7800000000000E+00  1.4078164074000E-03  5.6380880731000E-02
   280  2.7900000000000E+00  1.1223704444000E-03  5.0460439340000E-02
   281  2.8000000000000E+00  8.6969566864000E-04  4.4973770153000E-02
   282  2.8100000000000E+00  6.4784948507000E-04  3.9904661665000E-02
   283  2.8200000000000E+00  4.5476948587000E-04  3.5236824786000E-02
   284  2.8300000000000E+00  2.8787491255000E-04  3.0954312501000E-02
   285  2.8400000000000E+00  1.4488707740000E-04  2.7040684451000E-02
   286  2.8500000000000E+00  2.4290682933000E-05  2.3478735338000E-02
   287  2.8600000000000E+00 -7.5904690635000E-05  2.0251192740000E-02
   288  2.8700000000000E+00 -1.5836430303000E-04  1.7339549393000E-02
   289  2.8800000000000E+00 -2.2406199175000E-04  1.4727509598000E-02
   290  2.8900000000000E+00 -2.7466947869000E-04  1.2397509248000E-02
   291  2.9000000000000E+00 -3.1230816047000E-04  1.0330173467000E-02
   292  2.9100000000000E+00 -3.3836579435000E-04  8.5085624222000E-03
   293  2.9200000000000E+00 -3.5391463348000E-04  6.9166710252000E-03
   294  2.9300000000000E+00 -3.6042877316000E-04  5.5366693555000E-03
   295  2.9400000000000E+00 -3.5979353596000E-04  4.3481753770000E-03
   296  2.9500000000000E+00 -3.5250076797000E-04  3.3387916260000E-03
   297  2.9600000000000E+00 -3.3964503233000E-04  2.4924505180000E-03
   298  2.9700000000000E+00 -3.2273523131000E-04  1.7895687790000E-03
   299  2.9800000000000E+00 -3.0257770758000E-04  1.2162172604000E-03
   300  2.9900000000000E+00 -2.7971569001000E-04  7.6051305907000E-04
   301  3.0000000000000E+00 -2.5499928399000E-04  4.0787030975000E-04
   302  3.0100000000000E+00 -2.2979370307000E-04  1.3812629568000E-04
   303  3.0200000000000E+00 -2.0407472907000E-04 -5.4157884343000E-05
   304  3.0300000000000E+00 -1.7839112577000E-04 -1.8061486550000E-04
   305  3.0400000000000E+00 -1.5356320700000E-04 -2.5649525935000E-04
   306  3.0500000000000E+00 -1.3009979568000E-04 -2.9304703351000E-04
   307  3.0600000000000E+00 -1.0796802562000E-04 -2.9450671257000E-04
   308  3.0700000000000E+00 -8.7463571871000E-05 -2.6947369952000E-04
   309  3.0800000000000E+00 -6.9318340679000E-05 -2.3325180731000E-04
   310  3.0900000000000E+00 -5.3317889637000E-05 -1.8679311661000E-04
   311  3.1000000000000E+00 -3.9401895271000E-05 -1.3345766024000E-04
   312  3.1100000000000E+00 -2.7682886758000E-05 -7.9395770888000E-05
   313  3.1200000000000E+00 -1.8570905567000E-05 -3.5818749875000E-05
   314  3.1300000000000E+00 -1.1444023968000E-05  3.3479830696000E-06
   315  3.1400000000000E+00 -6.1180015600000E-06  3.6761879984000E-05
   316  3.1500000000000E+00 -2.4992731964000E-06  6.1702441176000E-05
   317  3.1600000000000E+00 -4.1349001026000E-07  7.6573878519000E-05
   318  3.1700000000000E+00  5.8205690089000E-07  8.3643031843000E-05
   319  3.1800000000000E+00  7.8848226267000E-07  8.3055562452000E-05
   320  3.1900000000000E+00  8.0529321976000E-07  7.0435890588000E-05
   321  3.2000000000000E+00  7.1744656139000E-07  4.9376483510000E-05
   322  3.2100000000000E+00  4.3938841029000E-07  2.6152353337000E-05
   323  3.2200000000000E+00  7.7097252466000E-08  4.1589685038000E-06
   324  3.2300000000000E+00 -3.6431837134000E-08 -4.0831222555000E-06
   325  3.2400000000000E+00 -4.7932131666000E-08 -5.3720253755000E-06
   326  3.2500000000000E+00 -3.2384951006000E-08 -3.6295648147000E-06
   327  3.2600000000000E+00 -2.5367488119000E-09 -2.8430780178000E-07
   328  3.2700000000000E+00  0.0000000000000E+00  0.0000000000000E+00
   329  3.2800000000000E+00  0.0000000000000E+00  0.0000000000000E+00
   330  3.2900000000000E+00  0.0000000000000E+00  0.0000000000000E+00
   331  3.3000000000000E+00  0.0000000000000E+00  0.0000000000000E+00
   332  3.3100000000000E+00  0.0000000000000E+00  0.0000000000000E+00
   333  3.3200000000000E+00  0.0000000000000E+00  0.0000000000000E+00
   334  3.3300000000000E+00  0.0000000000000E+00  0.0000000000000E+00
   335  3.3400000000000E+00  0.0000000000000E+00  0.0000000000000E+00
   336  3.3500000000000E+00  0.0000000000000E+00  0.0000000000000E+00
   337  3.3600000000000E+00  0.0000000000000E+00  0.0000000000000E+00
   338  3.3700000000000E+00  0.0000000000000E+00  0.0000000000000E+00
   339  3.3800000000000E+00  0.0000000000000E+00  0.0000000000000E+00
   340  3.3900000000000E+00  0.0000000000000E+00  0.0000000000000E+00
   341  3.4000000000000E+00  0.0000000000000E+00  0.0000000000000E+00
   342  3.4100000000000E+00  0.0000000000000E+00  0.0000000000000E+00
   343  3.4200000000000E+00  0.0000000000000E+00  0.0000000000000E+00
   344  3.4300000000000E+00  0.0000000000000E+00  0.0000000000000E+00
   345  3.4400000000000E+00  0.0000000000000E+00  0.0000000000000E+00
   346  3.4500000000000E+00  0.0000000000000E+00  0.0000000000000E+00
   347  3.4600000000000E+00  0.0000000000000E+00  0.0000000000000E+00
   348  3.4700000000000E+00  0.0000000000000E+00  0.0000000000000E+00
   349  3.4800000000000E+00  0.0000000000000E+00  0.0000000000000E+00
   350  3.4900000000000E+00  0.0000000000000E+00  0.0000000000000E+00
   351  3.5000000000000E+00  0.0000000000000E+00  0.0000000000000E+00
   352  3.5100000000000E+00  0.0000000000000E+00  0.0000000000000E+00
   353  3.5200000000000E+00  0.0000000000000E+00  0.0000000000000E+00
   354  3.5300000000000E+00  0.0000000000000E+00  0.0000000000000E+00
   355  3.5400000000000E+00  0.0000000000000E+00  0.0000000000000E+00
   356  3.5500000000000E+00  0.0000000000000E+00  0.0000000000000E+00
   357  3.5600000000000E+00  0.0000000000000E+00  0.0000000000000E+00
   358  3.5700000000000E+00  0.0000000000000E+00  0.0000000000000E+00
   359  3.5800000000000E+00  0.0000000000000E+00  0.0000000000000E+00
   360  3.5900000000000E+00  0.0000000000000E+00  0.0000000000000E+00
   361  3.6000000000000E+00  0.0000000000000E+00  0.0000000000000E+00
   362  3.6100000000000E+00  0.0000000000000E+00  0.0000000000000E+00
   363  3.6200000000000E+00  0.0000000000000E+00  0.0000000000000E+00
   364  3.6300000000000E+00  0.0000000000000E+00  0.0000000000000E+00
   365  3.6400000000000E+00  0.0000000000000E+00  0.0000000000000E+00
   366  3.6500000000000E+00  0.0000000000000E+00  0.0000000000000E+00
   367  3.6600000000000E+00  0.0000000000000E+00  0.0000000000000E+00
   368  3.6700000000000E+00  0.0000000000000E+00  0.0000000000000E+00
   369  3.6800000000000E+00  0.0000000000000E+00  0.0000000000000E+00
   370  3.6900000000000E+00  0.0000000000000E+00  0.0000000000000E+00
   371  3.7000000000000E+00  0.0000000000000E+00  0.0000000000000E+00
   372  3.7100000000000E+00  0.0000000000000E+00  0.0000000000000E+00
   373  3.7200000000000E+00  0.0000000000000E+00  0.0000000000000E+00
   374  3.7300000000000E+00  0.0000000000000E+00  0.0000000000000E+00
   375  3.7400000000000E+00  0.0000000000000E+00  0.0000000000000E+00
   376  3.7500000000000E+00  0.0000000000000E+00  0.0000000000000E+00
   377  3.7600000000000E+00  0.0000000000000E+00  0.0000000000000E+00
   378  3.7700000000000E+00  0.0000000000000E+00  0.0000000000000E+00
   379  3.7800000000000E+00  0.0000000000000E+00  0.0000000000000E+00
   380  3.7900000000000E+00  0.0000000000000E+00  0.0000000000000E+00
   381  3.8000000000000E+00  0.0000000000000E+00  0.0000000000000E+00
   382  3.8100000000000E+00  0.0000000000000E+00  0.0000000000000E+00
   383  3.8200000000000E+00  0.0000000000000E+00  0.0000000000000E+00
   384  3.8300000000000E+00  0.0000000000000E+00  0.0000000000000E+00
   385  3.8400000000000E+00  0.0000000000000E+00  0.0000000000000E+00
   386  3.8500000000000E+00  0.0000000000000E+00  0.0000000000000E+00
   387  3.8600000000000E+00  0.0000000000000E+00  0.0000000000000E+00
   388  3.8700000000000E+00  0.0000000000000E+00  0.0000000000000E+00
   389  3.8800000000000E+00  0.0000000000000E+00  0.0000000000000E+00
   390  3.8900000000000E+00  0.0000000000000E+00  0.0000000000000E+00
   391  3.9000000000000E+00  0.0000000000000E+00  0.0000000000000E+00
   392  3.9100000000000E+00  0.0000000000000E+00  0.0000000000000E+00
   393  3.9200000000000E+00  0.0000000000000E+00  0.0000000000000E+00
   394  3.9300000000000E+00  0.0000000000000E+00  0.0000000000000E+00
   395  3.9400000000000E+00  0.0000000000000E+00  0.0000000000000E+00
   396  3.9500000000000E+00  0.0000000000000E+00  0.0000000000000E+00
   397  3.9600000000000E+00  0.0000000000000E+00  0.0000000000000E+00
   398  3.9700000000000E+00  0.0000000000000E+00  0.0000000000000E+00
   399  3.9800000000000E+00  0.0000000000000E+00  0.0000000000000E+00
   400  3.9900000000000E+00  0.0000000000000E+00  0.0000000000000E+00
   401  4.0000000000000E+00  0.0000000000000E+00  0.0000000000000E+00
   402  4.0100000000000E+00  0.0000000000000E+00  0.0000000000000E+00
   403  4.0200000000000E+00  0.0000000000000E+00  0.0000000000000E+00
   404  4.0300000000000E+00  0.0000000000000E+00  0.0000000000000E+00
   405  4.0400000000000E+00  0.0000000000000E+00  0.0000000000000E+00
   406  4.0500000000000E+00  0.0000000000000E+00  0.0000000000000E+00
   407  4.0600000000000E+00  0.0000000000000E+00  0.0000000000000E+00
   408  4.0700000000000E+00  0.0000000000000E+00  0.0000000000000E+00
   409  4.0800000000000E+00  0.0000000000000E+00  0.0000000000000E+00
   410  4.0900000000000E+00  0.0000000000000E+00  0.0000000000000E+00
   411  4.1000000000000E+00  0.0000000000000E+00  0.0000000000000E+00
   412  4.1100000000000E+00  0.0000000000000E+00  0.0000000000000E+00
   413  4.1200000000000E+00  0.0000000000000E+00  0.0000000000000E+00
   414  4.1300000000000E+00  0.0000000000000E+00  0.0000000000000E+00
   415  4.1400000000000E+00  0.0000000000000E+00  0.0000000000000E+00
   416  4.1500000000000E+00  0.0000000000000E+00  0.0000000000000E+00
   417  4.1600000000000E+00  0.0000000000000E+00  0.0000000000000E+00
   418  4.1700000000000E+00  0.0000000000000E+00  0.0000000000000E+00
   419  4.1800000000000E+00  0.0000000000000E+00  0.0000000000000E+00
   420  4.1900000000000E+00  0.0000000000000E+00  0.0000000000000E+00
   421  4.2000000000000E+00  0.0000000000000E+00  0.0000000000000E+00
   422  4.2100000000000E+00  0.0000000000000E+00  0.0000000000000E+00
   423  4.2200000000000E+00  0.0000000000000E+00  0.0000000000000E+00