Zr   ONCVPSP-2.1.1   r_core=    2.49215 1.89419 2.18569
    40.0000   12.0000   150105   zatom,zion,pspd
    8   11   2   4   600   0   pspcod,pspxc,lmax,lloc,mmax,r2well
    5.99000000   0.00000000   0.00000000   rchrg fchrg qchrg
    2   2   2   0   0   nproj
    1   1   extension_switch
       0                         5.5972716610000E+00  1.0642642758000E+00
     1  0.0000000000000E+00  0.0000000000000E+00  0.0000000000000E+00
     2  1.0000000000000E-02 -4.2912454394000E-02  8.3605059806000E-03
     3  2.0000000000000E-02 -8.5785233491000E-02  1.6707624747000E-02
     4  3.0000000000000E-02 -1.2857867789000E-01  2.5027910477000E-02
     5  4.0000000000000E-02 -1.7125316010000E-01  3.3307800595000E-02
     6  5.0000000000000E-02 -2.1376910086000E-01  4.1533558538000E-02
     7  6.0000000000000E-02 -2.5608698582000E-01  4.9691217893000E-02
     8  7.0000000000000E-02 -2.9816738281000E-01  5.7766528353000E-02
     9  8.0000000000000E-02 -3.3997095970000E-01  6.5744903926000E-02
    10  9.0000000000000E-02 -3.8145850311000E-01  7.3611373830000E-02
    11  1.0000000000000E-01 -4.2259093801000E-01  8.1350536494000E-02
    12  1.1000000000000E-01 -4.6332934834000E-01  8.8946517064000E-02
    13  1.2000000000000E-01 -5.0363499874000E-01  9.6382928811000E-02
    14  1.3000000000000E-01 -5.4346935755000E-01  1.0364283880000E-01
    15  1.4000000000000E-01 -5.8279412110000E-01  1.1070873820000E-01
    16  1.5000000000000E-01 -6.2157123945000E-01  1.1756251751000E-01
    17  1.6000000000000E-01 -6.5976294359000E-01  1.2418544711000E-01
    18  1.7000000000000E-01 -6.9733177425000E-01  1.3055816330000E-01
    19  1.8000000000000E-01 -7.3424061222000E-01  1.3666066021000E-01
    20  1.9000000000000E-01 -7.7045271053000E-01  1.4247228769000E-01
    21  2.0000000000000E-01 -8.0593172812000E-01  1.4797175552000E-01
    22  2.1000000000000E-01 -8.4064176543000E-01  1.5313714400000E-01
    23  2.2000000000000E-01 -8.7454740162000E-01  1.5794592113000E-01
    24  2.3000000000000E-01 -9.0761373363000E-01  1.6237496650000E-01
    25  2.4000000000000E-01 -9.3980641692000E-01  1.6640060190000E-01
    26  2.5000000000000E-01 -9.7109170797000E-01  1.6999862876000E-01
    27  2.6000000000000E-01 -1.0014365085000E+00  1.7314437245000E-01
    28  2.7000000000000E-01 -1.0308084114000E+00  1.7581273337000E-01
    29  2.8000000000000E-01 -1.0591757478000E+00  1.7797824473000E-01
    30  2.9000000000000E-01 -1.0865076365000E+00  1.7961513703000E-01
    31  3.0000000000000E-01 -1.1127740341000E+00  1.8069740910000E-01
    32  3.1000000000000E-01 -1.1379457868000E+00  1.8119890544000E-01
    33  3.2000000000000E-01 -1.1619946829000E+00  1.8109339969000E-01
    34  3.3000000000000E-01 -1.1848935074000E+00  1.8035468356000E-01
    35  3.4000000000000E-01 -1.2066160972000E+00  1.7895666344000E-01
    36  3.5000000000000E-01 -1.2271373952000E+00  1.7687345774000E-01
    37  3.6000000000000E-01 -1.2464335096000E+00  1.7407950622000E-01
    38  3.7000000000000E-01 -1.2644817679000E+00  1.7054967611000E-01
    39  3.8000000000000E-01 -1.2812607756000E+00  1.6625937772000E-01
    40  3.9000000000000E-01 -1.2967504738000E+00  1.6118468347000E-01
    41  4.0000000000000E-01 -1.3109321953000E+00  1.5530244692000E-01
    42  4.1000000000000E-01 -1.3237887222000E+00  1.4859042727000E-01
    43  4.2000000000000E-01 -1.3353043416000E+00  1.4102741538000E-01
    44  4.3000000000000E-01 -1.3454649018000E+00  1.3259336145000E-01
    45  4.4000000000000E-01 -1.3542578662000E+00  1.2326950374000E-01
    46  4.5000000000000E-01 -1.3616723673000E+00  1.1303849778000E-01
    47  4.6000000000000E-01 -1.3676992575000E+00  1.0188454544000E-01
    48  4.7000000000000E-01 -1.3723311600000E+00  8.9793523149000E-02
    49  4.8000000000000E-01 -1.3755625152000E+00  7.6753106840000E-02
    50  4.9000000000000E-01 -1.3773896273000E+00  6.2752897094000E-02
    51  5.0000000000000E-01 -1.3778107103000E+00  4.7784548654000E-02
    52  5.1000000000000E-01 -1.3768259243000E+00  3.1841879528000E-02
    53  5.2000000000000E-01 -1.3744374093000E+00  1.4920976312000E-02
    54  5.3000000000000E-01 -1.3706493332000E+00 -2.9796630386000E-03
    55  5.4000000000000E-01 -1.3654679062000E+00 -2.1859063678000E-02
    56  5.5000000000000E-01 -1.3589014162000E+00 -4.1713654592000E-02
    57  5.6000000000000E-01 -1.3509602517000E+00 -6.2537176847000E-02
    58  5.7000000000000E-01 -1.3416569140000E+00 -8.4320617472000E-02
    59  5.8000000000000E-01 -1.3310060402000E+00 -1.0705210738000E-01
    60  5.9000000000000E-01 -1.3190244035000E+00 -1.3071688106000E-01
    61  6.0000000000000E-01 -1.3057309229000E+00 -1.5529720322000E-01
    62  6.1000000000000E-01 -1.2911466642000E+00 -1.8077231462000E-01
    63  6.2000000000000E-01 -1.2752948221000E+00 -2.0711843466000E-01
    64  6.3000000000000E-01 -1.2582007292000E+00 -2.3430866601000E-01
    65  6.4000000000000E-01 -1.2398918208000E+00 -2.6231304033000E-01
    66  6.5000000000000E-01 -1.2203976176000E+00 -2.9109850291000E-01
    67  6.6000000000000E-01 -1.1997497048000E+00 -3.2062888210000E-01
    68  6.7000000000000E-01 -1.1779816887000E+00 -3.5086495364000E-01
    69  6.8000000000000E-01 -1.1551291598000E+00 -3.8176446394000E-01
    70  6.9000000000000E-01 -1.1312296489000E+00 -4.1328216270000E-01
    71  7.0000000000000E-01 -1.1063225725000E+00 -4.4536986481000E-01
    72  7.1000000000000E-01 -1.0804491756000E+00 -4.7797653239000E-01
    73  7.2000000000000E-01 -1.0536524685000E+00 -5.1104835397000E-01
    74  7.3000000000000E-01 -1.0259771593000E+00 -5.4452884179000E-01
    75  7.4000000000000E-01 -9.9746957600000E-01 -5.7835894055000E-01
    76  7.5000000000000E-01 -9.6817758151000E-01 -6.1247715527000E-01
    77  7.6000000000000E-01 -9.3815049331000E-01 -6.4681968689000E-01
    78  7.7000000000000E-01 -9.0743898932000E-01 -6.8132058017000E-01
    79  7.8000000000000E-01 -8.7609501060000E-01 -7.1591188444000E-01
    80  7.9000000000000E-01 -8.4417165906000E-01 -7.5052382598000E-01
    81  8.0000000000000E-01 -8.1172309027000E-01 -7.8508499168000E-01
    82  8.1000000000000E-01 -7.7880440179000E-01 -8.1952252342000E-01
    83  8.2000000000000E-01 -7.4547151720000E-01 -8.5376232252000E-01
    84  8.3000000000000E-01 -7.1178106614000E-01 -8.8772926366000E-01
    85  8.4000000000000E-01 -6.7779026069000E-01 -9.2134741764000E-01
    86  8.5000000000000E-01 -6.4355676840000E-01 -9.5454028211000E-01
    87  8.6000000000000E-01 -6.0913858235000E-01 -9.8723101963000E-01
    88  8.7000000000000E-01 -5.7459388861000E-01 -1.0193427021000E+00
    89  8.8000000000000E-01 -5.3998093143000E-01 -1.0507985607000E+00
    90  8.9000000000000E-01 -5.0535787672000E-01 -1.0815222407000E+00
    91  9.0000000000000E-01 -4.7078267402000E-01 -1.1114380593000E+00
    92  9.1000000000000E-01 -4.3631291768000E-01 -1.1404712667000E+00
    93  9.2000000000000E-01 -4.0200570751000E-01 -1.1685483081000E+00
    94  9.3000000000000E-01 -3.6791750951000E-01 -1.1955970866000E+00
    95  9.4000000000000E-01 -3.3410401725000E-01 -1.2215472246000E+00
    96  9.5000000000000E-01 -3.0062001427000E-01 -1.2463303237000E+00
    97  9.6000000000000E-01 -2.6751923827000E-01 -1.2698802205000E+00
    98  9.7000000000000E-01 -2.3485430935000E-01 -1.2921331302000E+00
    99  9.8000000000000E-01 -2.0267643740000E-01 -1.3130281746000E+00
   100  9.9000000000000E-01 -1.7103540414000E-01 -1.3325074310000E+00
   101  1.0000000000000E+00 -1.3997943687000E-01 -1.3505161665000E+00
   102  1.0100000000000E+00 -1.0955507297000E-01 -1.3670030872000E+00
   103  1.0200000000000E+00 -7.9807044318000E-02 -1.3819205502000E+00
   104  1.0300000000000E+00 -5.0778227456000E-02 -1.3952246569000E+00
   105  1.0400000000000E+00 -2.2509451227000E-02 -1.4068755973000E+00
   106  1.0500000000000E+00  4.9607325242000E-03 -1.4168380556000E+00
   107  1.0600000000000E+00  3.1595911970000E-02 -1.4250809645000E+00
   108  1.0700000000000E+00  5.7361984601000E-02 -1.4315777977000E+00
   109  1.0800000000000E+00  8.2227135923000E-02 -1.4363065256000E+00
   110  1.0900000000000E+00  1.0616209975000E-01 -1.4392500624000E+00
   111  1.1000000000000E+00  1.2914033211000E-01 -1.4403965494000E+00
   112  1.1100000000000E+00  1.5113776446000E-01 -1.4397389027000E+00
   113  1.1200000000000E+00  1.7213290725000E-01 -1.4372749739000E+00
   114  1.1300000000000E+00  1.9210685587000E-01 -1.4330075441000E+00
   115  1.1400000000000E+00  2.1104386878000E-01 -1.4269452656000E+00
   116  1.1500000000000E+00  2.2893073571000E-01 -1.4191015450000E+00
   117  1.1600000000000E+00  2.4575686927000E-01 -1.4094946754000E+00
   118  1.1700000000000E+00  2.6151454475000E-01 -1.3981482005000E+00
   119  1.1800000000000E+00  2.7619911718000E-01 -1.3850911801000E+00
   120  1.1900000000000E+00  2.8980849117000E-01 -1.3703572779000E+00
   121  1.2000000000000E+00  3.0234302104000E-01 -1.3539846031000E+00
   122  1.2100000000000E+00  3.1380639496000E-01 -1.3360169511000E+00
   123  1.2200000000000E+00  3.2420474444000E-01 -1.3165023462000E+00
   124  1.2300000000000E+00  3.3354657775000E-01 -1.2954929481000E+00
   125  1.2400000000000E+00  3.4184332549000E-01 -1.2730456962000E+00
   126  1.2500000000000E+00  3.4910895717000E-01 -1.2492215870000E+00
   127  1.2600000000000E+00  3.5535958626000E-01 -1.2240851798000E+00
   128  1.2700000000000E+00  3.6061392534000E-01 -1.1977049946000E+00
   129  1.2800000000000E+00  3.6489302289000E-01 -1.1701528853000E+00
   130  1.2900000000000E+00  3.6821983389000E-01 -1.1415037147000E+00
   131  1.3000000000000E+00  3.7061961099000E-01 -1.1118353698000E+00
   132  1.3100000000000E+00  3.7211951200000E-01 -1.0812280137000E+00
   133  1.3200000000000E+00  3.7274840820000E-01 -1.0497643937000E+00
   134  1.3300000000000E+00  3.7253702855000E-01 -1.0175288214000E+00
   135  1.3400000000000E+00  3.7151751651000E-01 -9.8460695720000E-01
   136  1.3500000000000E+00  3.6972361174000E-01 -9.5108670269000E-01
   137  1.3600000000000E+00  3.6719011231000E-01 -9.1705517091000E-01
   138  1.3700000000000E+00  3.6395306017000E-01 -8.8260101326000E-01
   139  1.3800000000000E+00  3.6004955967000E-01 -8.4781301999000E-01
   140  1.3900000000000E+00  3.5551709394000E-01 -8.1277814206000E-01
   141  1.4000000000000E+00  3.5039450501000E-01 -7.7758524103000E-01
   142  1.4100000000000E+00  3.4472028087000E-01 -7.4231904037000E-01
   143  1.4200000000000E+00  3.3853364731000E-01 -7.0706439580000E-01
   144  1.4300000000000E+00  3.3187414724000E-01 -6.7190464544000E-01
   145  1.4400000000000E+00  3.2478029519000E-01 -6.3691786409000E-01
   146  1.4500000000000E+00  3.1729209259000E-01 -6.0218445637000E-01
   147  1.4600000000000E+00  3.0944699038000E-01 -5.6777529484000E-01
   148  1.4700000000000E+00  3.0128355970000E-01 -5.3376268117000E-01
   149  1.4800000000000E+00  2.9283871313000E-01 -5.0021225598000E-01
   150  1.4900000000000E+00  2.8414826481000E-01 -4.6718494736000E-01
   151  1.5000000000000E+00  2.7524809497000E-01 -4.3473996467000E-01
   152  1.5100000000000E+00  2.6617042117000E-01 -4.0292519533000E-01
   153  1.5200000000000E+00  2.5694931296000E-01 -3.7179119246000E-01
   154  1.5300000000000E+00  2.4761397951000E-01 -3.4137637558000E-01
   155  1.5400000000000E+00  2.3819570289000E-01 -3.1172253698000E-01
   156  1.5500000000000E+00  2.2872249521000E-01 -2.8286492762000E-01
   157  1.5600000000000E+00  2.1922294259000E-01 -2.5483896341000E-01
   158  1.5700000000000E+00  2.0972358131000E-01 -2.2767577099000E-01
   159  1.5800000000000E+00  2.0025018986000E-01 -2.0140434143000E-01
   160  1.5900000000000E+00  1.9082760624000E-01 -1.7605122363000E-01
   161  1.6000000000000E+00  1.8147871879000E-01 -1.5163884105000E-01
   162  1.6100000000000E+00  1.7222646182000E-01 -1.2818882791000E-01
   163  1.6200000000000E+00  1.6309081623000E-01 -1.0571705454000E-01
   164  1.6300000000000E+00  1.5409261764000E-01 -8.4239943005000E-02
   165  1.6400000000000E+00  1.4524897435000E-01 -6.3766954851000E-02
   166  1.6500000000000E+00  1.3657845006000E-01 -4.4309066044000E-02
   167  1.6600000000000E+00  1.2809535832000E-01 -2.5869582152000E-02
   168  1.6700000000000E+00  1.1981584634000E-01 -8.4538785537000E-03
   169  1.6800000000000E+00  1.1175154708000E-01  7.9405522156000E-03
   170  1.6900000000000E+00  1.0391607950000E-01  2.3313999264000E-02
   171  1.7000000000000E+00  9.6318541120000E-02  3.7674368101000E-02
   172  1.7100000000000E+00  8.8969944613000E-02  5.1027581628000E-02
   173  1.7200000000000E+00  8.1877025160000E-02  6.3386467760000E-02
   174  1.7300000000000E+00  7.5048151113000E-02  7.4762433733000E-02
   175  1.7400000000000E+00  6.8487884780000E-02  8.5172735481000E-02
   176  1.7500000000000E+00  6.2201945954000E-02  9.4634020999000E-02
   177  1.7600000000000E+00  5.6192929186000E-02  1.0316745802000E-01
   178  1.7700000000000E+00  5.0463954291000E-02  1.1079453233000E-01
   179  1.7800000000000E+00  4.5015848757000E-02  1.1753984839000E-01
   180  1.7900000000000E+00  3.9849229519000E-02  1.2342919702000E-01
   181  1.8000000000000E+00  3.4963342993000E-02  1.2849020354000E-01
   182  1.8100000000000E+00  3.0356465484000E-02  1.3275225960000E-01
   183  1.8200000000000E+00  2.6026416723000E-02  1.3624568963000E-01
   184  1.8300000000000E+00  2.1969365341000E-02  1.3900261745000E-01
   185  1.8400000000000E+00  1.8181814042000E-02  1.4105585365000E-01
   186  1.8500000000000E+00  1.4658131451000E-02  1.4243923735000E-01
   187  1.8600000000000E+00  1.1393561784000E-02  1.4318794858000E-01
   188  1.8700000000000E+00  8.3811384109000E-03  1.4333662836000E-01
   189  1.8800000000000E+00  5.6145943801000E-03  1.4292215779000E-01
   190  1.8900000000000E+00  3.0862555997000E-03  1.4197977798000E-01
   191  1.9000000000000E+00  7.8843071424000E-04  1.4054680658000E-01
   192  1.9100000000000E+00 -1.2871264166000E-03  1.3865931721000E-01
   193  1.9200000000000E+00 -3.1491264788000E-03  1.3635364757000E-01
   194  1.9300000000000E+00 -4.8064413770000E-03  1.3366698978000E-01
   195  1.9400000000000E+00 -6.2682975095000E-03  1.3063330302000E-01
   196  1.9500000000000E+00 -7.5442947663000E-03  1.2729115560000E-01
   197  1.9600000000000E+00 -8.6437953777000E-03  1.2367201336000E-01
   198  1.9700000000000E+00 -9.5768232938000E-03  1.1981259338000E-01
   199  1.9800000000000E+00 -1.0352970200000E-02  1.1574465447000E-01
   200  1.9900000000000E+00 -1.0982126651000E-02  1.1150064470000E-01
   201  2.0000000000000E+00 -1.1474338074000E-02  1.0711341425000E-01
   202  2.0100000000000E+00 -1.1838843943000E-02  1.0261001281000E-01
   203  2.0200000000000E+00 -1.2086177333000E-02  9.8023945960000E-02
   204  2.0300000000000E+00 -1.2225004615000E-02  9.3378545127000E-02
   205  2.0400000000000E+00 -1.2265225670000E-02  8.8702569360000E-02
   206  2.0500000000000E+00 -1.2215911084000E-02  8.4020611289000E-02
   207  2.0600000000000E+00 -1.2085519019000E-02  7.9354002278000E-02
   208  2.0700000000000E+00 -1.1883794867000E-02  7.4729160448000E-02
   209  2.0800000000000E+00 -1.1617863026000E-02  7.0161425843000E-02
   210  2.0900000000000E+00 -1.1296682140000E-02  6.5673018299000E-02
   211  2.1000000000000E+00 -1.0927618258000E-02  6.1279859889000E-02
   212  2.1100000000000E+00 -1.0517624708000E-02  5.6995966515000E-02
   213  2.1200000000000E+00 -1.0074905614000E-02  5.2839574346000E-02
   214  2.1300000000000E+00 -9.6046655518000E-03  4.8818192335000E-02
   215  2.1400000000000E+00 -9.1140806319000E-03  4.4945736855000E-02
   216  2.1500000000000E+00 -8.6087000247000E-03  4.1230611581000E-02
   217  2.1600000000000E+00 -8.0932801267000E-03  3.7678402927000E-02
   218  2.1700000000000E+00 -7.5743602060000E-03  3.4299970019000E-02
   219  2.1800000000000E+00 -7.0549620340000E-03  3.1095394422000E-02
   220  2.1900000000000E+00 -6.5399449983000E-03  2.8069913568000E-02
   221  2.2000000000000E+00 -6.0333221719000E-03  2.5226237001000E-02
   222  2.2100000000000E+00 -5.5375377220000E-03  2.2562556625000E-02
   223  2.2200000000000E+00 -5.0567970214000E-03  2.0081447963000E-02
   224  2.2300000000000E+00 -4.5927945222000E-03  1.7779092101000E-02
   225  2.2400000000000E+00 -4.1476685578000E-03  1.5652524801000E-02
   226  2.2500000000000E+00 -3.7242363549000E-03  1.3700145382000E-02
   227  2.2600000000000E+00 -3.3228710002000E-03  1.1914961056000E-02
   228  2.2700000000000E+00 -2.9453249607000E-03  1.0292548749000E-02
   229  2.2800000000000E+00 -2.5925723689000E-03  8.8270016292000E-03
   230  2.2900000000000E+00 -2.2645432311000E-03  7.5104782009000E-03
   231  2.3000000000000E+00 -1.9622887367000E-03  6.3365057501000E-03
   232  2.3100000000000E+00 -1.6853816718000E-03  5.2968606885000E-03
   233  2.3200000000000E+00 -1.4333713616000E-03  4.3831318728000E-03
   234  2.3300000000000E+00 -1.2065850299000E-03  3.5870211723000E-03
   235  2.3400000000000E+00 -1.0036786720000E-03  2.8998863076000E-03
   236  2.3500000000000E+00 -8.2395000808000E-04  2.3128078000000E-03
   237  2.3600000000000E+00 -6.6674470857000E-04  1.8165835591000E-03
   238  2.3700000000000E+00 -5.3053973606000E-04  1.4032302279000E-03
   239  2.3800000000000E+00 -4.1422160525000E-04  1.0634739435000E-03
   240  2.3900000000000E+00 -3.1652027083000E-04  7.8860925283000E-04
   241  2.4000000000000E+00 -2.3580985709000E-04  5.7161131273000E-04
   242  2.4100000000000E+00 -1.7064221236000E-04  4.0333296296000E-04
   243  2.4200000000000E+00 -1.1944109526000E-04  2.7659698841000E-04
   244  2.4300000000000E+00 -8.0530748818000E-05  1.8558843864000E-04
   245  2.4400000000000E+00 -5.2228095435000E-05  1.2182411022000E-04
   246  2.4500000000000E+00 -3.2867315319000E-05  8.0243196019000E-05
   247  2.4600000000000E+00 -2.0763251456000E-05  5.6453287926000E-05
   248  2.4700000000000E+00 -1.4190115706000E-05  4.4104762330000E-05
   249  2.4800000000000E+00 -1.1392300726000E-05  3.9133104843000E-05
   250  2.4900000000000E+00 -1.0584777727000E-05  3.7418931962000E-05
   251  2.5000000000000E+00 -7.4620554042000E-06  2.7092224484000E-05
   252  2.5100000000000E+00 -3.7135488607000E-06  1.3873094524000E-05
   253  2.5200000000000E+00 -5.3813990305000E-07  2.0559363848000E-06
   254  2.5300000000000E+00  6.1230399800000E-07 -2.1604727054000E-06
   255  2.5400000000000E+00  6.2173815503000E-07 -2.1937604821000E-06
   256  2.5500000000000E+00  1.4048767607000E-07 -4.9570113960000E-07
   257  2.5600000000000E+00  0.0000000000000E+00  0.0000000000000E+00
   258  2.5700000000000E+00  0.0000000000000E+00  0.0000000000000E+00
   259  2.5800000000000E+00  0.0000000000000E+00  0.0000000000000E+00
   260  2.5900000000000E+00  0.0000000000000E+00  0.0000000000000E+00
   261  2.6000000000000E+00  0.0000000000000E+00  0.0000000000000E+00
   262  2.6100000000000E+00  0.0000000000000E+00  0.0000000000000E+00
   263  2.6200000000000E+00  0.0000000000000E+00  0.0000000000000E+00
   264  2.6300000000000E+00  0.0000000000000E+00  0.0000000000000E+00
   265  2.6400000000000E+00  0.0000000000000E+00  0.0000000000000E+00
   266  2.6500000000000E+00  0.0000000000000E+00  0.0000000000000E+00
   267  2.6600000000000E+00  0.0000000000000E+00  0.0000000000000E+00
   268  2.6700000000000E+00  0.0000000000000E+00  0.0000000000000E+00
   269  2.6800000000000E+00  0.0000000000000E+00  0.0000000000000E+00
   270  2.6900000000000E+00  0.0000000000000E+00  0.0000000000000E+00
   271  2.7000000000000E+00  0.0000000000000E+00  0.0000000000000E+00
   272  2.7100000000000E+00  0.0000000000000E+00  0.0000000000000E+00
   273  2.7200000000000E+00  0.0000000000000E+00  0.0000000000000E+00
   274  2.7300000000000E+00  0.0000000000000E+00  0.0000000000000E+00
   275  2.7400000000000E+00  0.0000000000000E+00  0.0000000000000E+00
   276  2.7500000000000E+00  0.0000000000000E+00  0.0000000000000E+00
   277  2.7600000000000E+00  0.0000000000000E+00  0.0000000000000E+00
   278  2.7700000000000E+00  0.0000000000000E+00  0.0000000000000E+00
   279  2.7800000000000E+00  0.0000000000000E+00  0.0000000000000E+00
   280  2.7900000000000E+00  0.0000000000000E+00  0.0000000000000E+00
   281  2.8000000000000E+00  0.0000000000000E+00  0.0000000000000E+00
   282  2.8100000000000E+00  0.0000000000000E+00  0.0000000000000E+00
   283  2.8200000000000E+00  0.0000000000000E+00  0.0000000000000E+00
   284  2.8300000000000E+00  0.0000000000000E+00  0.0000000000000E+00
   285  2.8400000000000E+00  0.0000000000000E+00  0.0000000000000E+00
   286  2.8500000000000E+00  0.0000000000000E+00  0.0000000000000E+00
   287  2.8600000000000E+00  0.0000000000000E+00  0.0000000000000E+00
   288  2.8700000000000E+00  0.0000000000000E+00  0.0000000000000E+00
   289  2.8800000000000E+00  0.0000000000000E+00  0.0000000000000E+00
   290  2.8900000000000E+00  0.0000000000000E+00  0.0000000000000E+00
   291  2.9000000000000E+00  0.0000000000000E+00  0.0000000000000E+00
   292  2.9100000000000E+00  0.0000000000000E+00  0.0000000000000E+00
   293  2.9200000000000E+00  0.0000000000000E+00  0.0000000000000E+00
   294  2.9300000000000E+00  0.0000000000000E+00  0.0000000000000E+00
   295  2.9400000000000E+00  0.0000000000000E+00  0.0000000000000E+00
   296  2.9500000000000E+00  0.0000000000000E+00  0.0000000000000E+00
   297  2.9600000000000E+00  0.0000000000000E+00  0.0000000000000E+00
   298  2.9700000000000E+00  0.0000000000000E+00  0.0000000000000E+00
   299  2.9800000000000E+00  0.0000000000000E+00  0.0000000000000E+00
   300  2.9900000000000E+00  0.0000000000000E+00  0.0000000000000E+00
   301  3.0000000000000E+00  0.0000000000000E+00  0.0000000000000E+00
   302  3.0100000000000E+00  0.0000000000000E+00  0.0000000000000E+00
   303  3.0200000000000E+00  0.0000000000000E+00  0.0000000000000E+00
   304  3.0300000000000E+00  0.0000000000000E+00  0.0000000000000E+00
   305  3.0400000000000E+00  0.0000000000000E+00  0.0000000000000E+00
   306  3.0500000000000E+00  0.0000000000000E+00  0.0000000000000E+00
   307  3.0600000000000E+00  0.0000000000000E+00  0.0000000000000E+00
   308  3.0700000000000E+00  0.0000000000000E+00  0.0000000000000E+00
   309  3.0800000000000E+00  0.0000000000000E+00  0.0000000000000E+00
   310  3.0900000000000E+00  0.0000000000000E+00  0.0000000000000E+00
   311  3.1000000000000E+00  0.0000000000000E+00  0.0000000000000E+00
   312  3.1100000000000E+00  0.0000000000000E+00  0.0000000000000E+00
   313  3.1200000000000E+00  0.0000000000000E+00  0.0000000000000E+00
   314  3.1300000000000E+00  0.0000000000000E+00  0.0000000000000E+00
   315  3.1400000000000E+00  0.0000000000000E+00  0.0000000000000E+00
   316  3.1500000000000E+00  0.0000000000000E+00  0.0000000000000E+00
   317  3.1600000000000E+00  0.0000000000000E+00  0.0000000000000E+00
   318  3.1700000000000E+00  0.0000000000000E+00  0.0000000000000E+00
   319  3.1800000000000E+00  0.0000000000000E+00  0.0000000000000E+00
   320  3.1900000000000E+00  0.0000000000000E+00  0.0000000000000E+00
   321  3.2000000000000E+00  0.0000000000000E+00  0.0000000000000E+00
   322  3.2100000000000E+00  0.0000000000000E+00  0.0000000000000E+00
   323  3.2200000000000E+00  0.0000000000000E+00  0.0000000000000E+00
   324  3.2300000000000E+00  0.0000000000000E+00  0.0000000000000E+00
   325  3.2400000000000E+00  0.0000000000000E+00  0.0000000000000E+00
   326  3.2500000000000E+00  0.0000000000000E+00  0.0000000000000E+00
   327  3.2600000000000E+00  0.0000000000000E+00  0.0000000000000E+00
   328  3.2700000000000E+00  0.0000000000000E+00  0.0000000000000E+00
   329  3.2800000000000E+00  0.0000000000000E+00  0.0000000000000E+00
   330  3.2900000000000E+00  0.0000000000000E+00  0.0000000000000E+00
   331  3.3000000000000E+00  0.0000000000000E+00  0.0000000000000E+00
   332  3.3100000000000E+00  0.0000000000000E+00  0.0000000000000E+00
   333  3.3200000000000E+00  0.0000000000000E+00  0.0000000000000E+00
   334  3.3300000000000E+00  0.0000000000000E+00  0.0000000000000E+00
   335  3.3400000000000E+00  0.0000000000000E+00  0.0000000000000E+00
   336  3.3500000000000E+00  0.0000000000000E+00  0.0000000000000E+00
   337  3.3600000000000E+00  0.0000000000000E+00  0.0000000000000E+00
   338  3.3700000000000E+00  0.0000000000000E+00  0.0000000000000E+00
   339  3.3800000000000E+00  0.0000000000000E+00  0.0000000000000E+00
   340  3.3900000000000E+00  0.0000000000000E+00  0.0000000000000E+00
   341  3.4000000000000E+00  0.0000000000000E+00  0.0000000000000E+00
   342  3.4100000000000E+00  0.0000000000000E+00  0.0000000000000E+00
   343  3.4200000000000E+00  0.0000000000000E+00  0.0000000000000E+00
   344  3.4300000000000E+00  0.0000000000000E+00  0.0000000000000E+00
   345  3.4400000000000E+00  0.0000000000000E+00  0.0000000000000E+00
   346  3.4500000000000E+00  0.0000000000000E+00  0.0000000000000E+00
   347  3.4600000000000E+00  0.0000000000000E+00  0.0000000000000E+00
   348  3.4700000000000E+00  0.0000000000000E+00  0.0000000000000E+00
   349  3.4800000000000E+00  0.0000000000000E+00  0.0000000000000E+00
   350  3.4900000000000E+00  0.0000000000000E+00  0.0000000000000E+00
   351  3.5000000000000E+00  0.0000000000000E+00  0.0000000000000E+00
   352  3.5100000000000E+00  0.0000000000000E+00  0.0000000000000E+00
   353  3.5200000000000E+00  0.0000000000000E+00  0.0000000000000E+00
   354  3.5300000000000E+00  0.0000000000000E+00  0.0000000000000E+00
   355  3.5400000000000E+00  0.0000000000000E+00  0.0000000000000E+00
   356  3.5500000000000E+00  0.0000000000000E+00  0.0000000000000E+00
   357  3.5600000000000E+00  0.0000000000000E+00  0.0000000000000E+00
   358  3.5700000000000E+00  0.0000000000000E+00  0.0000000000000E+00
   359  3.5800000000000E+00  0.0000000000000E+00  0.0000000000000E+00
   360  3.5900000000000E+00  0.0000000000000E+00  0.0000000000000E+00
   361  3.6000000000000E+00  0.0000000000000E+00  0.0000000000000E+00
   362  3.6100000000000E+00  0.0000000000000E+00  0.0000000000000E+00
   363  3.6200000000000E+00  0.0000000000000E+00  0.0000000000000E+00
   364  3.6300000000000E+00  0.0000000000000E+00  0.0000000000000E+00
   365  3.6400000000000E+00  0.0000000000000E+00  0.0000000000000E+00
   366  3.6500000000000E+00  0.0000000000000E+00  0.0000000000000E+00
   367  3.6600000000000E+00  0.0000000000000E+00  0.0000000000000E+00
   368  3.6700000000000E+00  0.0000000000000E+00  0.0000000000000E+00
   369  3.6800000000000E+00  0.0000000000000E+00  0.0000000000000E+00
   370  3.6900000000000E+00  0.0000000000000E+00  0.0000000000000E+00
   371  3.7000000000000E+00  0.0000000000000E+00  0.0000000000000E+00
   372  3.7100000000000E+00  0.0000000000000E+00  0.0000000000000E+00
   373  3.7200000000000E+00  0.0000000000000E+00  0.0000000000000E+00
   374  3.7300000000000E+00  0.0000000000000E+00  0.0000000000000E+00
   375  3.7400000000000E+00  0.0000000000000E+00  0.0000000000000E+00
   376  3.7500000000000E+00  0.0000000000000E+00  0.0000000000000E+00
   377  3.7600000000000E+00  0.0000000000000E+00  0.0000000000000E+00
   378  3.7700000000000E+00  0.0000000000000E+00  0.0000000000000E+00
   379  3.7800000000000E+00  0.0000000000000E+00  0.0000000000000E+00
   380  3.7900000000000E+00  0.0000000000000E+00  0.0000000000000E+00
   381  3.8000000000000E+00  0.0000000000000E+00  0.0000000000000E+00
   382  3.8100000000000E+00  0.0000000000000E+00  0.0000000000000E+00
   383  3.8200000000000E+00  0.0000000000000E+00  0.0000000000000E+00
   384  3.8300000000000E+00  0.0000000000000E+00  0.0000000000000E+00
   385  3.8400000000000E+00  0.0000000000000E+00  0.0000000000000E+00
   386  3.8500000000000E+00  0.0000000000000E+00  0.0000000000000E+00
   387  3.8600000000000E+00  0.0000000000000E+00  0.0000000000000E+00
   388  3.8700000000000E+00  0.0000000000000E+00  0.0000000000000E+00
   389  3.8800000000000E+00  0.0000000000000E+00  0.0000000000000E+00
   390  3.8900000000000E+00  0.0000000000000E+00  0.0000000000000E+00
   391  3.9000000000000E+00  0.0000000000000E+00  0.0000000000000E+00
   392  3.9100000000000E+00  0.0000000000000E+00  0.0000000000000E+00
   393  3.9200000000000E+00  0.0000000000000E+00  0.0000000000000E+00
   394  3.9300000000000E+00  0.0000000000000E+00  0.0000000000000E+00
   395  3.9400000000000E+00  0.0000000000000E+00  0.0000000000000E+00
   396  3.9500000000000E+00  0.0000000000000E+00  0.0000000000000E+00
   397  3.9600000000000E+00  0.0000000000000E+00  0.0000000000000E+00
   398  3.9700000000000E+00  0.0000000000000E+00  0.0000000000000E+00
   399  3.9800000000000E+00  0.0000000000000E+00  0.0000000000000E+00
   400  3.9900000000000E+00  0.0000000000000E+00  0.0000000000000E+00
   401  4.0000000000000E+00  0.0000000000000E+00  0.0000000000000E+00
   402  4.0100000000000E+00  0.0000000000000E+00  0.0000000000000E+00
   403  4.0200000000000E+00  0.0000000000000E+00  0.0000000000000E+00
   404  4.0300000000000E+00  0.0000000000000E+00  0.0000000000000E+00
   405  4.0400000000000E+00  0.0000000000000E+00  0.0000000000000E+00
   406  4.0500000000000E+00  0.0000000000000E+00  0.0000000000000E+00
   407  4.0600000000000E+00  0.0000000000000E+00  0.0000000000000E+00
   408  4.0700000000000E+00  0.0000000000000E+00  0.0000000000000E+00
   409  4.0800000000000E+00  0.0000000000000E+00  0.0000000000000E+00
   410  4.0900000000000E+00  0.0000000000000E+00  0.0000000000000E+00
   411  4.1000000000000E+00  0.0000000000000E+00  0.0000000000000E+00
   412  4.1100000000000E+00  0.0000000000000E+00  0.0000000000000E+00
   413  4.1200000000000E+00  0.0000000000000E+00  0.0000000000000E+00
   414  4.1300000000000E+00  0.0000000000000E+00  0.0000000000000E+00
   415  4.1400000000000E+00  0.0000000000000E+00  0.0000000000000E+00
   416  4.1500000000000E+00  0.0000000000000E+00  0.0000000000000E+00
   417  4.1600000000000E+00  0.0000000000000E+00  0.0000000000000E+00
   418  4.1700000000000E+00  0.0000000000000E+00  0.0000000000000E+00
   419  4.1800000000000E+00  0.0000000000000E+00  0.0000000000000E+00
   420  4.1900000000000E+00  0.0000000000000E+00  0.0000000000000E+00
   421  4.2000000000000E+00  0.0000000000000E+00  0.0000000000000E+00
   422  4.2100000000000E+00  0.0000000000000E+00  0.0000000000000E+00
   423  4.2200000000000E+00  0.0000000000000E+00  0.0000000000000E+00