Nb   ONCVPSP-2.1.1   r_core=    1.65987 1.62074 1.64019
    41.0000   13.0000   150105   zatom,zion,pspd
    8   11   2   4   600   0   pspcod,pspxc,lmax,lloc,mmax,r2well
    5.99000000   0.00000000   0.00000000   rchrg fchrg qchrg
    2   2   2   0   0   nproj
    1   1   extension_switch
       0                         1.1430348055500E+01  1.1000547172000E+00
     1  0.0000000000000E+00  0.0000000000000E+00  0.0000000000000E+00
     2  1.0000000000000E-02 -5.0386080059000E-02 -1.0546623689000E-02
     3  2.0000000000000E-02 -1.0076397903000E-01 -2.0830815539000E-02
     4  3.0000000000000E-02 -1.5112489271000E-01 -3.0593460948000E-02
     5  4.0000000000000E-02 -2.0145877763000E-01 -3.9582045320000E-02
     6  5.0000000000000E-02 -2.5175374883000E-01 -4.7553868261000E-02
     7  6.0000000000000E-02 -3.0199549822000E-01 -5.4279155746000E-02
     8  7.0000000000000E-02 -3.5216674032000E-01 -5.9544037813000E-02
     9  8.0000000000000E-02 -4.0224669143000E-01 -6.3153360659000E-02
    10  9.0000000000000E-02 -4.5221058852000E-01 -6.4933303626000E-02
    11  1.0000000000000E-01 -5.0202925333000E-01 -6.4733773552000E-02
    12  1.1000000000000E-01 -5.5166870686000E-01 -6.2430551024000E-02
    13  1.2000000000000E-01 -6.0108983915000E-01 -5.7927165654000E-02
    14  1.3000000000000E-01 -6.5024813841000E-01 -5.1156480011000E-02
    15  1.4000000000000E-01 -6.9909348323000E-01 -4.2081965083000E-02
    16  1.5000000000000E-01 -7.4757000096000E-01 -3.0698652404000E-02
    17  1.6000000000000E-01 -7.9561599456000E-01 -1.7033752404000E-02
    18  1.7000000000000E-01 -8.4316393994000E-01 -1.1469302849000E-03
    19  1.8000000000000E-01 -8.9014055458000E-01  1.6869764037000E-02
    20  1.9000000000000E-01 -9.3646693814000E-01  3.6892313648000E-02
    21  2.0000000000000E-01 -9.8205878467000E-01  5.8765497509000E-02
    22  2.1000000000000E-01 -1.0268266654000E+00  8.2303992102000E-02
    23  2.2000000000000E-01 -1.0706763807000E+00  1.0729380269000E-01
    24  2.3000000000000E-01 -1.1135093784000E+00  1.3349401232000E-01
    25  2.4000000000000E-01 -1.1552232366000E+00  1.6063883148000E-01
    26  2.5000000000000E-01 -1.1957122052000E+00  1.8843992808000E-01
    27  2.6000000000000E-01 -1.2348678058000E+00  2.1658902504000E-01
    28  2.7000000000000E-01 -1.2725794801000E+00  2.4476072562000E-01
    29  2.8000000000000E-01 -1.3087352858000E+00  2.7261555049000E-01
    30  2.9000000000000E-01 -1.3432226325000E+00  2.9980315794000E-01
    31  3.0000000000000E-01 -1.3759290518000E+00  3.2596571221000E-01
    32  3.1000000000000E-01 -1.4067429955000E+00  3.5074136945000E-01
    33  3.2000000000000E-01 -1.4355546530000E+00  3.7376784556000E-01
    34  3.3000000000000E-01 -1.4622567758000E+00  3.9468599615000E-01
    35  3.4000000000000E-01 -1.4867455363000E+00  4.1314353737000E-01
    36  3.5000000000000E-01 -1.5089213338000E+00  4.2879851438000E-01
    37  3.6000000000000E-01 -1.5286896574000E+00  4.4132299868000E-01
    38  3.7000000000000E-01 -1.5459618643000E+00  4.5040638969000E-01
    39  3.8000000000000E-01 -1.5606559933000E+00  4.5575884557000E-01
    40  3.9000000000000E-01 -1.5726975182000E+00  4.5711442092000E-01
    41  4.0000000000000E-01 -1.5820200608000E+00  4.5423400067000E-01
    42  4.1000000000000E-01 -1.5885660727000E+00  4.4690806364000E-01
    43  4.2000000000000E-01 -1.5922874615000E+00  4.3495917535000E-01
    44  4.3000000000000E-01 -1.5931461605000E+00  4.1824420213000E-01
    45  4.4000000000000E-01 -1.5911146366000E+00  3.9665622458000E-01
    46  4.5000000000000E-01 -1.5861763306000E+00  3.7012613018000E-01
    47  4.6000000000000E-01 -1.5783260266000E+00  3.3862386755000E-01
    48  4.7000000000000E-01 -1.5675701452000E+00  3.0215934682000E-01
    49  4.8000000000000E-01 -1.5539269564000E+00  2.6078297064000E-01
    50  4.9000000000000E-01 -1.5374266956000E+00  2.1458573853000E-01
    51  5.0000000000000E-01 -1.5181116757000E+00  1.6369927262000E-01
    52  5.1000000000000E-01 -1.4960361922000E+00  1.0829500475000E-01
    53  5.2000000000000E-01 -1.4712664001000E+00  4.8583228267000E-02
    54  5.3000000000000E-01 -1.4438801799000E+00 -1.5187980545000E-02
    55  5.4000000000000E-01 -1.4139667840000E+00 -8.2734656495000E-02
    56  5.5000000000000E-01 -1.3816264934000E+00 -1.5373883595000E-01
    57  5.6000000000000E-01 -1.3469701865000E+00 -2.2785087450000E-01
    58  5.7000000000000E-01 -1.3101187904000E+00 -3.0469204639000E-01
    59  5.8000000000000E-01 -1.2712027008000E+00 -3.8385752478000E-01
    60  5.9000000000000E-01 -1.2303611264000E+00 -4.6491931759000E-01
    61  6.0000000000000E-01 -1.1877413367000E+00 -5.4742987008000E-01
    62  6.1000000000000E-01 -1.1434978962000E+00 -6.3092545666000E-01
    63  6.2000000000000E-01 -1.0977918714000E+00 -7.1492965778000E-01
    64  6.3000000000000E-01 -1.0507898174000E+00 -7.9895788424000E-01
    65  6.4000000000000E-01 -1.0026630265000E+00 -8.8252039321000E-01
    66  6.5000000000000E-01 -9.5358651448000E-01 -9.6512658790000E-01
    67  6.6000000000000E-01 -9.0373792014000E-01 -1.0462895523000E+00
    68  6.7000000000000E-01 -8.5329669083000E-01 -1.1255291445000E+00
    69  6.8000000000000E-01 -8.0244313027000E-01 -1.2023756939000E+00
    70  6.9000000000000E-01 -7.5135711061000E-01 -1.2763750301000E+00
    71  7.0000000000000E-01 -7.0021727808000E-01 -1.3470912186000E+00
    72  7.1000000000000E-01 -6.4920007976000E-01 -1.4141100084000E+00
    73  7.2000000000000E-01 -5.9847877543000E-01 -1.4770422293000E+00
    74  7.3000000000000E-01 -5.4822262723000E-01 -1.5355263653000E+00
    75  7.4000000000000E-01 -4.9859563686000E-01 -1.5892327807000E+00
    76  7.5000000000000E-01 -4.4975601039000E-01 -1.6378649429000E+00
    77  7.6000000000000E-01 -4.0185529175000E-01 -1.6811618686000E+00
    78  7.7000000000000E-01 -3.5503759090000E-01 -1.7189000735000E+00
    79  7.8000000000000E-01 -3.0943888854000E-01 -1.7508951119000E+00
    80  7.9000000000000E-01 -2.6518640442000E-01 -1.7770027632000E+00
    81  8.0000000000000E-01 -2.2239803353000E-01 -1.7971198554000E+00
    82  8.1000000000000E-01 -1.8118185339000E-01 -1.8111847228000E+00
    83  8.2000000000000E-01 -1.4163570519000E-01 -1.8191772938000E+00
    84  8.3000000000000E-01 -1.0384685100000E-01 -1.8211188128000E+00
    85  8.4000000000000E-01 -6.7891708120000E-02 -1.8170712028000E+00
    86  8.5000000000000E-01 -3.3835661700000E-02 -1.8071360758000E+00
    87  8.6000000000000E-01 -1.7329553390000E-03 -1.7914534059000E+00
    88  8.7000000000000E-01  2.8373340634000E-02 -1.7701998801000E+00
    89  8.8000000000000E-01  5.6451284473000E-02 -1.7435869449000E+00
    90  8.9000000000000E-01  8.2479943662000E-02 -1.7118585720000E+00
    91  9.0000000000000E-01  1.0644920326000E-01 -1.6752887662000E+00
    92  9.1000000000000E-01  1.2835950489000E-01 -1.6341788430000E+00
    93  9.2000000000000E-01  1.4822151989000E-01 -1.5888545054000E+00
    94  9.3000000000000E-01  1.6605576072000E-01 -1.5396627507000E+00
    95  9.4000000000000E-01  1.8189213529000E-01 -1.4869686420000E+00
    96  9.5000000000000E-01  1.9576944933000E-01 -1.4311519778000E+00
    97  9.6000000000000E-01  2.0773486257000E-01 -1.3726038981000E+00
    98  9.7000000000000E-01  2.1784329144000E-01 -1.3117236295000E+00
    99  9.8000000000000E-01  2.2615683381000E-01 -1.2489152520000E+00
   100  9.9000000000000E-01  2.3274414818000E-01 -1.1845829996000E+00
   101  1.0000000000000E+00  2.3767965479000E-01 -1.1191291560000E+00
   102  1.0100000000000E+00  2.4104290337000E-01 -1.0529504787000E+00
   103  1.0200000000000E+00  2.4291787489000E-01 -9.8643512412000E-01
   104  1.0300000000000E+00  2.4339228625000E-01 -9.1995978509000E-01
   105  1.0400000000000E+00  2.4255713139000E-01 -8.5388903303000E-01
   106  1.0500000000000E+00  2.4050534070000E-01 -7.8856638305000E-01
   107  1.0600000000000E+00  2.3733158622000E-01 -7.2431781502000E-01
   108  1.0700000000000E+00  2.3313150502000E-01 -6.6144810563000E-01
   109  1.0800000000000E+00  2.2800114480000E-01 -6.0023955228000E-01
   110  1.0900000000000E+00  2.2203667206000E-01 -5.4095201234000E-01
   111  1.1000000000000E+00  2.1533240692000E-01 -4.8381368729000E-01
   112  1.1100000000000E+00  2.0798159791000E-01 -4.2902869458000E-01
   113  1.1200000000000E+00  2.0007556982000E-01 -3.7677399438000E-01
   114  1.1300000000000E+00  1.9170409244000E-01 -3.2720251306000E-01
   115  1.1400000000000E+00  1.8295242507000E-01 -2.8043161698000E-01
   116  1.1500000000000E+00  1.7390308993000E-01 -2.3655404631000E-01
   117  1.1600000000000E+00  1.6463531013000E-01 -1.9563669092000E-01
   118  1.1700000000000E+00  1.5522512140000E-01 -1.5772196198000E-01
   119  1.1800000000000E+00  1.4574234105000E-01 -1.2281992688000E-01
   120  1.1900000000000E+00  1.3625338962000E-01 -9.0920394435000E-02
   121  1.2000000000000E+00  1.2682116139000E-01 -6.1992715248000E-02
   122  1.2100000000000E+00  1.1750240112000E-01 -3.5980653755000E-02
   123  1.2200000000000E+00  1.0834893333000E-01 -1.2809051623000E-02
   124  1.2300000000000E+00  9.9409017505000E-02  7.6124530273000E-03
   125  1.2400000000000E+00  9.0725698215000E-02  2.5391570378000E-02
   126  1.2500000000000E+00  8.2335907403000E-02  4.0650553203000E-02
   127  1.2600000000000E+00  7.4273428363000E-02  5.3521230511000E-02
   128  1.2700000000000E+00  6.6567351079000E-02  6.4146228844000E-02
   129  1.2800000000000E+00  5.9240579220000E-02  7.2674942171000E-02
   130  1.2900000000000E+00  5.2313431943000E-02  7.9261931318000E-02
   131  1.3000000000000E+00  4.5801598759000E-02  8.4066239093000E-02
   132  1.3100000000000E+00  3.9715490962000E-02  8.7245667013000E-02
   133  1.3200000000000E+00  3.4063474899000E-02  8.8960666867000E-02
   134  1.3300000000000E+00  2.8849055134000E-02  8.9368274980000E-02
   135  1.3400000000000E+00  2.4072015090000E-02  8.8619668266000E-02
   136  1.3500000000000E+00  1.9730433242000E-02  8.6867796460000E-02
   137  1.3600000000000E+00  1.5817307257000E-02  8.4251979299000E-02
   138  1.3700000000000E+00  1.2323828666000E-02  8.0908498563000E-02
   139  1.3800000000000E+00  9.2387443607000E-03  7.6969458903000E-02
   140  1.3900000000000E+00  6.5470101755000E-03  7.2550754028000E-02
   141  1.4000000000000E+00  4.2325627919000E-03  6.7769787594000E-02
   142  1.4100000000000E+00  2.2760242815000E-03  6.2728825412000E-02
   143  1.4200000000000E+00  6.5620513210000E-04  5.7524719130000E-02
   144  1.4300000000000E+00 -6.4973071686000E-04  5.2250630344000E-02
   145  1.4400000000000E+00 -1.6675638087000E-03  4.6986014912000E-02
   146  1.4500000000000E+00 -2.4239150670000E-03  4.1813109262000E-02
   147  1.4600000000000E+00 -2.9484712713000E-03  3.6803873390000E-02
   148  1.4700000000000E+00 -3.2708633223000E-03  3.2025574684000E-02
   149  1.4800000000000E+00 -3.4218740747000E-03  2.7537985799000E-02
   150  1.4900000000000E+00 -3.4293713780000E-03  2.3379350528000E-02
   151  1.5000000000000E+00 -3.3223271679000E-03  1.9587698059000E-02
   152  1.5100000000000E+00 -3.1245092954000E-03  1.6172476193000E-02
   153  1.5200000000000E+00 -2.8616670429000E-03  1.3148830398000E-02
   154  1.5300000000000E+00 -2.5538823666000E-03  1.0508173617000E-02
   155  1.5400000000000E+00 -2.2219587439000E-03  8.2438292025000E-03
   156  1.5500000000000E+00 -1.8825426110000E-03  6.3355422030000E-03
   157  1.5600000000000E+00 -1.5506932214000E-03  4.7608061054000E-03
   158  1.5700000000000E+00 -1.2392394213000E-03  3.4908232935000E-03
   159  1.5800000000000E+00 -9.5719338482000E-04  2.4942483450000E-03
   160  1.5900000000000E+00 -7.1319701810000E-04  1.7368966422000E-03
   161  1.6000000000000E+00 -5.1013669584000E-04  1.1847750209000E-03
   162  1.6100000000000E+00 -3.5213917315000E-04  8.0150053318000E-04
   163  1.6200000000000E+00 -2.3604300099000E-04  5.5527800262000E-04
   164  1.6300000000000E+00 -1.6118001438000E-04  4.1053779919000E-04
   165  1.6400000000000E+00 -1.1853975339000E-04  3.4094714314000E-04
   166  1.6500000000000E+00 -1.0692699174000E-04  3.3153849646000E-04
   167  1.6600000000000E+00 -9.7821408579000E-05  3.0992512134000E-04
   168  1.6700000000000E+00 -4.7400776501000E-05  1.5232184309000E-04
   169  1.6800000000000E+00  3.5144141034000E-07 -1.1131933741000E-06
   170  1.6900000000000E+00  6.3956946839000E-06 -2.0258412172000E-05
   171  1.7000000000000E+00  0.0000000000000E+00  0.0000000000000E+00
   172  1.7100000000000E+00  0.0000000000000E+00  0.0000000000000E+00
   173  1.7200000000000E+00  0.0000000000000E+00  0.0000000000000E+00
   174  1.7300000000000E+00  0.0000000000000E+00  0.0000000000000E+00
   175  1.7400000000000E+00  0.0000000000000E+00  0.0000000000000E+00
   176  1.7500000000000E+00  0.0000000000000E+00  0.0000000000000E+00
   177  1.7600000000000E+00  0.0000000000000E+00  0.0000000000000E+00
   178  1.7700000000000E+00  0.0000000000000E+00  0.0000000000000E+00
   179  1.7800000000000E+00  0.0000000000000E+00  0.0000000000000E+00
   180  1.7900000000000E+00  0.0000000000000E+00  0.0000000000000E+00
   181  1.8000000000000E+00  0.0000000000000E+00  0.0000000000000E+00
   182  1.8100000000000E+00  0.0000000000000E+00  0.0000000000000E+00
   183  1.8200000000000E+00  0.0000000000000E+00  0.0000000000000E+00
   184  1.8300000000000E+00  0.0000000000000E+00  0.0000000000000E+00
   185  1.8400000000000E+00  0.0000000000000E+00  0.0000000000000E+00
   186  1.8500000000000E+00  0.0000000000000E+00  0.0000000000000E+00
   187  1.8600000000000E+00  0.0000000000000E+00  0.0000000000000E+00
   188  1.8700000000000E+00  0.0000000000000E+00  0.0000000000000E+00
   189  1.8800000000000E+00  0.0000000000000E+00  0.0000000000000E+00
   190  1.8900000000000E+00  0.0000000000000E+00  0.0000000000000E+00
   191  1.9000000000000E+00  0.0000000000000E+00  0.0000000000000E+00
   192  1.9100000000000E+00  0.0000000000000E+00  0.0000000000000E+00
   193  1.9200000000000E+00  0.0000000000000E+00  0.0000000000000E+00
   194  1.9300000000000E+00  0.0000000000000E+00  0.0000000000000E+00
   195  1.9400000000000E+00  0.0000000000000E+00  0.0000000000000E+00
   196  1.9500000000000E+00  0.0000000000000E+00  0.0000000000000E+00
   197  1.9600000000000E+00  0.0000000000000E+00  0.0000000000000E+00
   198  1.9700000000000E+00  0.0000000000000E+00  0.0000000000000E+00
   199  1.9800000000000E+00  0.0000000000000E+00  0.0000000000000E+00
   200  1.9900000000000E+00  0.0000000000000E+00  0.0000000000000E+00
   201  2.0000000000000E+00  0.0000000000000E+00  0.0000000000000E+00
   202  2.0100000000000E+00  0.0000000000000E+00  0.0000000000000E+00
   203  2.0200000000000E+00  0.0000000000000E+00  0.0000000000000E+00
   204  2.0300000000000E+00  0.0000000000000E+00  0.0000000000000E+00
   205  2.0400000000000E+00  0.0000000000000E+00  0.0000000000000E+00
   206  2.0500000000000E+00  0.0000000000000E+00  0.0000000000000E+00
   207  2.0600000000000E+00  0.0000000000000E+00  0.0000000000000E+00
   208  2.0700000000000E+00  0.0000000000000E+00  0.0000000000000E+00
   209  2.0800000000000E+00  0.0000000000000E+00  0.0000000000000E+00
   210  2.0900000000000E+00  0.0000000000000E+00  0.0000000000000E+00
   211  2.1000000000000E+00  0.0000000000000E+00  0.0000000000000E+00
   212  2.1100000000000E+00  0.0000000000000E+00  0.0000000000000E+00
   213  2.1200000000000E+00  0.0000000000000E+00  0.0000000000000E+00
   214  2.1300000000000E+00  0.0000000000000E+00  0.0000000000000E+00
   215  2.1400000000000E+00  0.0000000000000E+00  0.0000000000000E+00
   216  2.1500000000000E+00  0.0000000000000E+00  0.0000000000000E+00
   217  2.1600000000000E+00  0.0000000000000E+00  0.0000000000000E+00
   218  2.1700000000000E+00  0.0000000000000E+00  0.0000000000000E+00
   219  2.1800000000000E+00  0.0000000000000E+00  0.0000000000000E+00
   220  2.1900000000000E+00  0.0000000000000E+00  0.0000000000000E+00
   221  2.2000000000000E+00  0.0000000000000E+00  0.0000000000000E+00
   222  2.2100000000000E+00  0.0000000000000E+00  0.0000000000000E+00
   223  2.2200000000000E+00  0.0000000000000E+00  0.0000000000000E+00
   224  2.2300000000000E+00  0.0000000000000E+00  0.0000000000000E+00
   225  2.2400000000000E+00  0.0000000000000E+00  0.0000000000000E+00
   226  2.2500000000000E+00  0.0000000000000E+00  0.0000000000000E+00
   227  2.2600000000000E+00  0.0000000000000E+00  0.0000000000000E+00
   228  2.2700000000000E+00  0.0000000000000E+00  0.0000000000000E+00
   229  2.2800000000000E+00  0.0000000000000E+00  0.0000000000000E+00
   230  2.2900000000000E+00  0.0000000000000E+00  0.0000000000000E+00
   231  2.3000000000000E+00  0.0000000000000E+00  0.0000000000000E+00
   232  2.3100000000000E+00  0.0000000000000E+00  0.0000000000000E+00
   233  2.3200000000000E+00  0.0000000000000E+00  0.0000000000000E+00
   234  2.3300000000000E+00  0.0000000000000E+00  0.0000000000000E+00
   235  2.3400000000000E+00  0.0000000000000E+00  0.0000000000000E+00
   236  2.3500000000000E+00  0.0000000000000E+00  0.0000000000000E+00
   237  2.3600000000000E+00  0.0000000000000E+00  0.0000000000000E+00
   238  2.3700000000000E+00  0.0000000000000E+00  0.0000000000000E+00
   239  2.3800000000000E+00  0.0000000000000E+00  0.0000000000000E+00
   240  2.3900000000000E+00  0.0000000000000E+00  0.0000000000000E+00
   241  2.4000000000000E+00  0.0000000000000E+00  0.0000000000000E+00
   242  2.4100000000000E+00  0.0000000000000E+00  0.0000000000000E+00
   243  2.4200000000000E+00  0.0000000000000E+00  0.0000000000000E+00
   244  2.4300000000000E+00  0.0000000000000E+00  0.0000000000000E+00
   245  2.4400000000000E+00  0.0000000000000E+00  0.0000000000000E+00
   246  2.4500000000000E+00  0.0000000000000E+00  0.0000000000000E+00
   247  2.4600000000000E+00  0.0000000000000E+00  0.0000000000000E+00
   248  2.4700000000000E+00  0.0000000000000E+00  0.0000000000000E+00
   249  2.4800000000000E+00  0.0000000000000E+00  0.0000000000000E+00
   250  2.4900000000000E+00  0.0000000000000E+00  0.0000000000000E+00
   251  2.5000000000000E+00  0.0000000000000E+00  0.0000000000000E+00
   252  2.5100000000000E+00  0.0000000000000E+00  0.0000000000000E+00
   253  2.5200000000000E+00  0.0000000000000E+00  0.0000000000000E+00
   254  2.5300000000000E+00  0.0000000000000E+00  0.0000000000000E+00
   255  2.5400000000000E+00  0.0000000000000E+00  0.0000000000000E+00
   256  2.5500000000000E+00  0.0000000000000E+00  0.0000000000000E+00
   257  2.5600000000000E+00  0.0000000000000E+00  0.0000000000000E+00
   258  2.5700000000000E+00  0.0000000000000E+00  0.0000000000000E+00
   259  2.5800000000000E+00  0.0000000000000E+00  0.0000000000000E+00
   260  2.5900000000000E+00  0.0000000000000E+00  0.0000000000000E+00
   261  2.6000000000000E+00  0.0000000000000E+00  0.0000000000000E+00
   262  2.6100000000000E+00  0.0000000000000E+00  0.0000000000000E+00
   263  2.6200000000000E+00  0.0000000000000E+00  0.0000000000000E+00
   264  2.6300000000000E+00  0.0000000000000E+00  0.0000000000000E+00
   265  2.6400000000000E+00  0.0000000000000E+00  0.0000000000000E+00
   266  2.6500000000000E+00  0.0000000000000E+00  0.0000000000000E+00
   267  2.6600000000000E+00  0.0000000000000E+00  0.0000000000000E+00
   268  2.6700000000000E+00  0.0000000000000E+00  0.0000000000000E+00
   269  2.6800000000000E+00  0.0000000000000E+00  0.0000000000000E+00
   270  2.6900000000000E+00  0.0000000000000E+00  0.0000000000000E+00
   271  2.7000000000000E+00  0.0000000000000E+00  0.0000000000000E+00
   272  2.7100000000000E+00  0.0000000000000E+00  0.0000000000000E+00
   273  2.7200000000000E+00  0.0000000000000E+00  0.0000000000000E+00
   274  2.7300000000000E+00  0.0000000000000E+00  0.0000000000000E+00
   275  2.7400000000000E+00  0.0000000000000E+00  0.0000000000000E+00
   276  2.7500000000000E+00  0.0000000000000E+00  0.0000000000000E+00
   277  2.7600000000000E+00  0.0000000000000E+00  0.0000000000000E+00
   278  2.7700000000000E+00  0.0000000000000E+00  0.0000000000000E+00
   279  2.7800000000000E+00  0.0000000000000E+00  0.0000000000000E+00
   280  2.7900000000000E+00  0.0000000000000E+00  0.0000000000000E+00
   281  2.8000000000000E+00  0.0000000000000E+00  0.0000000000000E+00
   282  2.8100000000000E+00  0.0000000000000E+00  0.0000000000000E+00
   283  2.8200000000000E+00  0.0000000000000E+00  0.0000000000000E+00
   284  2.8300000000000E+00  0.0000000000000E+00  0.0000000000000E+00
   285  2.8400000000000E+00  0.0000000000000E+00  0.0000000000000E+00
   286  2.8500000000000E+00  0.0000000000000E+00  0.0000000000000E+00
   287  2.8600000000000E+00  0.0000000000000E+00  0.0000000000000E+00
   288  2.8700000000000E+00  0.0000000000000E+00  0.0000000000000E+00
   289  2.8800000000000E+00  0.0000000000000E+00  0.0000000000000E+00
   290  2.8900000000000E+00  0.0000000000000E+00  0.0000000000000E+00
   291  2.9000000000000E+00  0.0000000000000E+00  0.0000000000000E+00
   292  2.9100000000000E+00  0.0000000000000E+00  0.0000000000000E+00
   293  2.9200000000000E+00  0.0000000000000E+00  0.0000000000000E+00
   294  2.9300000000000E+00  0.0000000000000E+00  0.0000000000000E+00
   295  2.9400000000000E+00  0.0000000000000E+00  0.0000000000000E+00
   296  2.9500000000000E+00  0.0000000000000E+00  0.0000000000000E+00
   297  2.9600000000000E+00  0.0000000000000E+00  0.0000000000000E+00
   298  2.9700000000000E+00  0.0000000000000E+00  0.0000000000000E+00
   299  2.9800000000000E+00  0.0000000000000E+00  0.0000000000000E+00
   300  2.9900000000000E+00  0.0000000000000E+00  0.0000000000000E+00
   301  3.0000000000000E+00  0.0000000000000E+00  0.0000000000000E+00
   302  3.0100000000000E+00  0.0000000000000E+00  0.0000000000000E+00
   303  3.0200000000000E+00  0.0000000000000E+00  0.0000000000000E+00
   304  3.0300000000000E+00  0.0000000000000E+00  0.0000000000000E+00
   305  3.0400000000000E+00  0.0000000000000E+00  0.0000000000000E+00
   306  3.0500000000000E+00  0.0000000000000E+00  0.0000000000000E+00
   307  3.0600000000000E+00  0.0000000000000E+00  0.0000000000000E+00
   308  3.0700000000000E+00  0.0000000000000E+00  0.0000000000000E+00
   309  3.0800000000000E+00  0.0000000000000E+00  0.0000000000000E+00
   310  3.0900000000000E+00  0.0000000000000E+00  0.0000000000000E+00
   311  3.1000000000000E+00  0.0000000000000E+00  0.0000000000000E+00
   312  3.1100000000000E+00  0.0000000000000E+00  0.0000000000000E+00
   313  3.1200000000000E+00  0.0000000000000E+00  0.0000000000000E+00
   314  3.1300000000000E+00  0.0000000000000E+00  0.0000000000000E+00
   315  3.1400000000000E+00  0.0000000000000E+00  0.0000000000000E+00
   316  3.1500000000000E+00  0.0000000000000E+00  0.0000000000000E+00
   317  3.1600000000000E+00  0.0000000000000E+00  0.0000000000000E+00
   318  3.1700000000000E+00  0.0000000000000E+00  0.0000000000000E+00
   319  3.1800000000000E+00  0.0000000000000E+00  0.0000000000000E+00
   320  3.1900000000000E+00  0.0000000000000E+00  0.0000000000000E+00
   321  3.2000000000000E+00  0.0000000000000E+00  0.0000000000000E+00
   322  3.2100000000000E+00  0.0000000000000E+00  0.0000000000000E+00
   323  3.2200000000000E+00  0.0000000000000E+00  0.0000000000000E+00
   324  3.2300000000000E+00  0.0000000000000E+00  0.0000000000000E+00
   325  3.2400000000000E+00  0.0000000000000E+00  0.0000000000000E+00
   326  3.2500000000000E+00  0.0000000000000E+00  0.0000000000000E+00
   327  3.2600000000000E+00  0.0000000000000E+00  0.0000000000000E+00
   328  3.2700000000000E+00  0.0000000000000E+00  0.0000000000000E+00
   329  3.2800000000000E+00  0.0000000000000E+00  0.0000000000000E+00
   330  3.2900000000000E+00  0.0000000000000E+00  0.0000000000000E+00
   331  3.3000000000000E+00  0.0000000000000E+00  0.0000000000000E+00
   332  3.3100000000000E+00  0.0000000000000E+00  0.0000000000000E+00
   333  3.3200000000000E+00  0.0000000000000E+00  0.0000000000000E+00
   334  3.3300000000000E+00  0.0000000000000E+00  0.0000000000000E+00
   335  3.3400000000000E+00  0.0000000000000E+00  0.0000000000000E+00
   336  3.3500000000000E+00  0.0000000000000E+00  0.0000000000000E+00
   337  3.3600000000000E+00  0.0000000000000E+00  0.0000000000000E+00
   338  3.3700000000000E+00  0.0000000000000E+00  0.0000000000000E+00
   339  3.3800000000000E+00  0.0000000000000E+00  0.0000000000000E+00
   340  3.3900000000000E+00  0.0000000000000E+00  0.0000000000000E+00
   341  3.4000000000000E+00  0.0000000000000E+00  0.0000000000000E+00
   342  3.4100000000000E+00  0.0000000000000E+00  0.0000000000000E+00
   343  3.4200000000000E+00  0.0000000000000E+00  0.0000000000000E+00
   344  3.4300000000000E+00  0.0000000000000E+00  0.0000000000000E+00
   345  3.4400000000000E+00  0.0000000000000E+00  0.0000000000000E+00
   346  3.4500000000000E+00  0.0000000000000E+00  0.0000000000000E+00
   347  3.4600000000000E+00  0.0000000000000E+00  0.0000000000000E+00
   348  3.4700000000000E+00  0.0000000000000E+00  0.0000000000000E+00
   349  3.4800000000000E+00  0.0000000000000E+00  0.0000000000000E+00
   350  3.4900000000000E+00  0.0000000000000E+00  0.0000000000000E+00
   351  3.5000000000000E+00  0.0000000000000E+00  0.0000000000000E+00
   352  3.5100000000000E+00  0.0000000000000E+00  0.0000000000000E+00
   353  3.5200000000000E+00  0.0000000000000E+00  0.0000000000000E+00
   354  3.5300000000000E+00  0.0000000000000E+00  0.0000000000000E+00
   355  3.5400000000000E+00  0.0000000000000E+00  0.0000000000000E+00
   356  3.5500000000000E+00  0.0000000000000E+00  0.0000000000000E+00
   357  3.5600000000000E+00  0.0000000000000E+00  0.0000000000000E+00
   358  3.5700000000000E+00  0.0000000000000E+00  0.0000000000000E+00
   359  3.5800000000000E+00  0.0000000000000E+00  0.0000000000000E+00
   360  3.5900000000000E+00  0.0000000000000E+00  0.0000000000000E+00
   361  3.6000000000000E+00  0.0000000000000E+00  0.0000000000000E+00
   362  3.6100000000000E+00  0.0000000000000E+00  0.0000000000000E+00
   363  3.6200000000000E+00  0.0000000000000E+00  0.0000000000000E+00
   364  3.6300000000000E+00  0.0000000000000E+00  0.0000000000000E+00
   365  3.6400000000000E+00  0.0000000000000E+00  0.0000000000000E+00
   366  3.6500000000000E+00  0.0000000000000E+00  0.0000000000000E+00
   367  3.6600000000000E+00  0.0000000000000E+00  0.0000000000000E+00
   368  3.6700000000000E+00  0.0000000000000E+00  0.0000000000000E+00
   369  3.6800000000000E+00  0.0000000000000E+00  0.0000000000000E+00
   370  3.6900000000000E+00  0.0000000000000E+00  0.0000000000000E+00
   371  3.7000000000000E+00  0.0000000000000E+00  0.0000000000000E+00
   372  3.7100000000000E+00  0.0000000000000E+00  0.0000000000000E+00
   373  3.7200000000000E+00  0.0000000000000E+00  0.0000000000000E+00
   374  3.7300000000000E+00  0.0000000000000E+00  0.0000000000000E+00
   375  3.7400000000000E+00  0.0000000000000E+00  0.0000000000000E+00
   376  3.7500000000000E+00  0.0000000000000E+00  0.0000000000000E+00
   377  3.7600000000000E+00  0.0000000000000E+00  0.0000000000000E+00
   378  3.7700000000000E+00  0.0000000000000E+00  0.0000000000000E+00
   379  3.7800000000000E+00  0.0000000000000E+00  0.0000000000000E+00
   380  3.7900000000000E+00  0.0000000000000E+00  0.0000000000000E+00
   381  3.8000000000000E+00  0.0000000000000E+00  0.0000000000000E+00
   382  3.8100000000000E+00  0.0000000000000E+00  0.0000000000000E+00
   383  3.8200000000000E+00  0.0000000000000E+00  0.0000000000000E+00
   384  3.8300000000000E+00  0.0000000000000E+00  0.0000000000000E+00
   385  3.8400000000000E+00  0.0000000000000E+00  0.0000000000000E+00
   386  3.8500000000000E+00  0.0000000000000E+00  0.0000000000000E+00
   387  3.8600000000000E+00  0.0000000000000E+00  0.0000000000000E+00
   388  3.8700000000000E+00  0.0000000000000E+00  0.0000000000000E+00
   389  3.8800000000000E+00  0.0000000000000E+00  0.0000000000000E+00
   390  3.8900000000000E+00  0.0000000000000E+00  0.0000000000000E+00
   391  3.9000000000000E+00  0.0000000000000E+00  0.0000000000000E+00
   392  3.9100000000000E+00  0.0000000000000E+00  0.0000000000000E+00
   393  3.9200000000000E+00  0.0000000000000E+00  0.0000000000000E+00
   394  3.9300000000000E+00  0.0000000000000E+00  0.0000000000000E+00
   395  3.9400000000000E+00  0.0000000000000E+00  0.0000000000000E+00
   396  3.9500000000000E+00  0.0000000000000E+00  0.0000000000000E+00
   397  3.9600000000000E+00  0.0000000000000E+00  0.0000000000000E+00
   398  3.9700000000000E+00  0.0000000000000E+00  0.0000000000000E+00
   399  3.9800000000000E+00  0.0000000000000E+00  0.0000000000000E+00
   400  3.9900000000000E+00  0.0000000000000E+00  0.0000000000000E+00
   401  4.0000000000000E+00  0.0000000000000E+00  0.0000000000000E+00
   402  4.0100000000000E+00  0.0000000000000E+00  0.0000000000000E+00
   403  4.0200000000000E+00  0.0000000000000E+00  0.0000000000000E+00
   404  4.0300000000000E+00  0.0000000000000E+00  0.0000000000000E+00
   405  4.0400000000000E+00  0.0000000000000E+00  0.0000000000000E+00
   406  4.0500000000000E+00  0.0000000000000E+00  0.0000000000000E+00
   407  4.0600000000000E+00  0.0000000000000E+00  0.0000000000000E+00
   408  4.0700000000000E+00  0.0000000000000E+00  0.0000000000000E+00
   409  4.0800000000000E+00  0.0000000000000E+00  0.0000000000000E+00
   410  4.0900000000000E+00  0.0000000000000E+00  0.0000000000000E+00
   411  4.1000000000000E+00  0.0000000000000E+00  0.0000000000000E+00
   412  4.1100000000000E+00  0.0000000000000E+00  0.0000000000000E+00
   413  4.1200000000000E+00  0.0000000000000E+00  0.0000000000000E+00
   414  4.1300000000000E+00  0.0000000000000E+00  0.0000000000000E+00
   415  4.1400000000000E+00  0.0000000000000E+00  0.0000000000000E+00
   416  4.1500000000000E+00  0.0000000000000E+00  0.0000000000000E+00
   417  4.1600000000000E+00  0.0000000000000E+00  0.0000000000000E+00
   418  4.1700000000000E+00  0.0000000000000E+00  0.0000000000000E+00
   419  4.1800000000000E+00  0.0000000000000E+00  0.0000000000000E+00
   420  4.1900000000000E+00  0.0000000000000E+00  0.0000000000000E+00
   421  4.2000000000000E+00  0.0000000000000E+00  0.0000000000000E+00
   422  4.2100000000000E+00  0.0000000000000E+00  0.0000000000000E+00
   423  4.2200000000000E+00  0.0000000000000E+00  0.0000000000000E+00