Tc   ONCVPSP-2.1.1   r_core=    2.43158 2.58101 2.67505
    43.0000   15.0000   150105   zatom,zion,pspd
    8   11   2   4   600   0   pspcod,pspxc,lmax,lloc,mmax,r2well
    5.99000000   0.00000000   0.00000000   rchrg fchrg qchrg
    2   2   2   0   0   nproj
    1   1   extension_switch
       0                         4.6707734369500E+00  9.2638817240000E-01
     1  0.0000000000000E+00  0.0000000000000E+00  0.0000000000000E+00
     2  1.0000000000000E-02 -4.9651424559000E-02  4.6422169852000E-03
     3  2.0000000000000E-02 -9.9241839335000E-02  9.2663657391000E-03
     4  3.0000000000000E-02 -1.4871030111000E-01  1.3854340952000E-02
     5  4.0000000000000E-02 -1.9799599986000E-01  1.8387963600000E-02
     6  5.0000000000000E-02 -2.4703832537000E-01  2.2848945188000E-02
     7  6.0000000000000E-02 -2.9577693408000E-01  2.7218853315000E-02
     8  7.0000000000000E-02 -3.4415181593000E-01  3.1479078981000E-02
     9  8.0000000000000E-02 -3.9210336144000E-01  3.5610806054000E-02
    10  9.0000000000000E-02 -4.3957242896000E-01  3.9594983319000E-02
    11  1.0000000000000E-01 -4.8650041211000E-01  4.3412299481000E-02
    12  1.1000000000000E-01 -5.3282930743000E-01  4.7043161520000E-02
    13  1.2000000000000E-01 -5.7850178230000E-01  5.0467676747000E-02
    14  1.3000000000000E-01 -6.2346124305000E-01  5.3665638901000E-02
    15  1.4000000000000E-01 -6.6765190332000E-01  5.6616518616000E-02
    16  1.5000000000000E-01 -7.1101885265000E-01  5.9299458539000E-02
    17  1.6000000000000E-01 -7.5350812530000E-01  6.1693273380000E-02
    18  1.7000000000000E-01 -7.9506676918000E-01  6.3776455129000E-02
    19  1.8000000000000E-01 -8.3564291504000E-01  6.5527183651000E-02
    20  1.9000000000000E-01 -8.7518584571000E-01  6.6923342857000E-02
    21  2.0000000000000E-01 -9.1364606543000E-01  6.7942542578000E-02
    22  2.1000000000000E-01 -9.5097536918000E-01  6.8562146287000E-02
    23  2.2000000000000E-01 -9.8712691195000E-01  6.8759304724000E-02
    24  2.3000000000000E-01 -1.0220552779000E+00  6.8510995513000E-02
    25  2.4000000000000E-01 -1.0557165495000E+00  6.7794068736000E-02
    26  2.5000000000000E-01 -1.0880683755000E+00  6.6585298436000E-02
    27  2.6000000000000E-01 -1.1190700400000E+00  6.4861440155000E-02
    28  2.7000000000000E-01 -1.1486825296000E+00  6.2599294107000E-02
    29  2.8000000000000E-01 -1.1768686005000E+00  5.9775774046000E-02
    30  2.9000000000000E-01 -1.2035928446000E+00  5.6367981712000E-02
    31  3.0000000000000E-01 -1.2288217551000E+00  5.2353286526000E-02
    32  3.1000000000000E-01 -1.2525237905000E+00  4.7709410344000E-02
    33  3.2000000000000E-01 -1.2746694375000E+00  4.2414516931000E-02
    34  3.3000000000000E-01 -1.2952312720000E+00  3.6447305031000E-02
    35  3.4000000000000E-01 -1.3141840208000E+00  2.9787108585000E-02
    36  3.5000000000000E-01 -1.3315046171000E+00  2.2413994981000E-02
    37  3.6000000000000E-01 -1.3471722593000E+00  1.4308873928000E-02
    38  3.7000000000000E-01 -1.3611684626000E+00  5.4536012153000E-03
    39  3.8000000000000E-01 -1.3734771121000E+00 -4.1689084869000E-03
    40  3.9000000000000E-01 -1.3840845118000E+00 -1.4574570121000E-02
    41  4.0000000000000E-01 -1.3929794298000E+00 -2.5778016193000E-02
    42  4.1000000000000E-01 -1.4001531420000E+00 -3.7792482330000E-02
    43  4.2000000000000E-01 -1.4055994722000E+00 -5.0629693232000E-02
    44  4.3000000000000E-01 -1.4093148283000E+00 -6.4299749115000E-02
    45  4.4000000000000E-01 -1.4112982350000E+00 -7.8811013235000E-02
    46  4.5000000000000E-01 -1.4115513630000E+00 -9.4170001089000E-02
    47  4.6000000000000E-01 -1.4100785535000E+00 -1.1038127197000E-01
    48  4.7000000000000E-01 -1.4068868388000E+00 -1.2744732355000E-01
    49  4.8000000000000E-01 -1.4019859578000E+00 -1.4536849063000E-01
    50  4.9000000000000E-01 -1.3953883658000E+00 -1.6414285174000E-01
    51  5.0000000000000E-01 -1.3871092453000E+00 -1.8376612348000E-01
    52  5.1000000000000E-01 -1.3771665025000E+00 -2.0423158587000E-01
    53  5.2000000000000E-01 -1.3655807624000E+00 -2.2553000675000E-01
    54  5.3000000000000E-01 -1.3523753642000E+00 -2.4764954639000E-01
    55  5.4000000000000E-01 -1.3375763410000E+00 -2.7057571174000E-01
    56  5.5000000000000E-01 -1.3212123997000E+00 -2.9429129441000E-01
    57  5.6000000000000E-01 -1.3033148960000E+00 -3.1877630597000E-01
    58  5.7000000000000E-01 -1.2839177981000E+00 -3.4400796630000E-01
    59  5.8000000000000E-01 -1.2630576493000E+00 -3.6996063701000E-01
    60  5.9000000000000E-01 -1.2407735222000E+00 -3.9660583687000E-01
    61  6.0000000000000E-01 -1.2171069659000E+00 -4.2391220341000E-01
    62  6.1000000000000E-01 -1.1921019479000E+00 -4.5184550770000E-01
    63  6.2000000000000E-01 -1.1658047932000E+00 -4.8036867451000E-01
    64  6.3000000000000E-01 -1.1382641038000E+00 -5.0944177927000E-01
    65  6.4000000000000E-01 -1.1095306929000E+00 -5.3902211475000E-01
    66  6.5000000000000E-01 -1.0796574978000E+00 -5.6906422486000E-01
    67  6.6000000000000E-01 -1.0486994791000E+00 -5.9951995903000E-01
    68  6.7000000000000E-01 -1.0167135387000E+00 -6.3033855881000E-01
    69  6.8000000000000E-01 -9.8375842260000E-01 -6.6146673691000E-01
    70  6.9000000000000E-01 -9.4989458917000E-01 -6.9284877286000E-01
    71  7.0000000000000E-01 -9.1518411027000E-01 -7.2442662834000E-01
    72  7.1000000000000E-01 -8.7969055444000E-01 -7.5614006774000E-01
    73  7.2000000000000E-01 -8.4347885960000E-01 -7.8792679228000E-01
    74  7.3000000000000E-01 -8.0661521632000E-01 -8.1972257837000E-01
    75  7.4000000000000E-01 -7.6916689656000E-01 -8.5146145594000E-01
    76  7.5000000000000E-01 -7.3120214360000E-01 -8.8307586416000E-01
    77  7.6000000000000E-01 -6.9279002572000E-01 -9.1449683152000E-01
    78  7.7000000000000E-01 -6.5400028637000E-01 -9.4565416724000E-01
    79  7.8000000000000E-01 -6.1490319330000E-01 -9.7647666100000E-01
    80  7.9000000000000E-01 -5.7556938470000E-01 -1.0068922918000E+00
    81  8.0000000000000E-01 -5.3606971239000E-01 -1.0368284449000E+00
    82  8.1000000000000E-01 -4.9647508291000E-01 -1.0662121368000E+00
    83  8.2000000000000E-01 -4.5685629664000E-01 -1.0949702468000E+00
    84  8.3000000000000E-01 -4.1728388549000E-01 -1.1230297544000E+00
    85  8.4000000000000E-01 -3.7782794968000E-01 -1.1503179819000E+00
    86  8.5000000000000E-01 -3.3855799408000E-01 -1.1767628418000E+00
    87  8.6000000000000E-01 -2.9954276446000E-01 -1.2022930864000E+00
    88  8.7000000000000E-01 -2.6085008435000E-01 -1.2268385603000E+00
    89  8.8000000000000E-01 -2.2254669286000E-01 -1.2503304548000E+00
    90  8.9000000000000E-01 -1.8469808414000E-01 -1.2727015608000E+00
    91  9.0000000000000E-01 -1.4736834885000E-01 -1.2938865230000E+00
    92  9.1000000000000E-01 -1.1062001829000E-01 -1.3138220902000E+00
    93  9.2000000000000E-01 -7.4513911823000E-02 -1.3324473637000E+00
    94  9.3000000000000E-01 -3.9108987993000E-02 -1.3497040409000E+00
    95  9.4000000000000E-01 -4.4622000715000E-03 -1.3655366536000E+00
    96  9.5000000000000E-01  2.9371643443000E-02 -1.3798927994000E+00
    97  9.6000000000000E-01  6.2340012773000E-02 -1.3927233650000E+00
    98  9.7000000000000E-01  9.4392753201000E-02 -1.4039826960000E+00
    99  9.8000000000000E-01  1.2548222479000E-01 -1.4136288253000E+00
   100  9.9000000000000E-01  1.5556355346000E-01 -1.4216238649000E+00
   101  1.0000000000000E+00  1.8459455797000E-01 -1.4279339304000E+00
   102  1.0100000000000E+00  2.1253591318000E-01 -1.4325293999000E+00
   103  1.0200000000000E+00  2.3935124092000E-01 -1.4353850684000E+00
   104  1.0300000000000E+00  2.6500718219000E-01 -1.4364802723000E+00
   105  1.0400000000000E+00  2.8947333478000E-01 -1.4357988112000E+00
   106  1.0500000000000E+00  3.1272281118000E-01 -1.4333297882000E+00
   107  1.0600000000000E+00  3.3473180463000E-01 -1.4290669781000E+00
   108  1.0700000000000E+00  3.5547978314000E-01 -1.4230091206000E+00
   109  1.0800000000000E+00  3.7494948576000E-01 -1.4151599169000E+00
   110  1.0900000000000E+00  3.9312688321000E-01 -1.4055279729000E+00
   111  1.1000000000000E+00  4.1000168554000E-01 -1.3941275484000E+00
   112  1.1100000000000E+00  4.2556678398000E-01 -1.3809777184000E+00
   113  1.1200000000000E+00  4.3981841961000E-01 -1.3661026123000E+00
   114  1.1300000000000E+00  4.5275594726000E-01 -1.3495310587000E+00
   115  1.1400000000000E+00  4.6438256172000E-01 -1.3312976200000E+00
   116  1.1500000000000E+00  4.7470453129000E-01 -1.3114414422000E+00
   117  1.1600000000000E+00  4.8373129406000E-01 -1.2900063732000E+00
   118  1.1700000000000E+00  4.9147538462000E-01 -1.2670408429000E+00
   119  1.1800000000000E+00  4.9795287147000E-01 -1.2425983984000E+00
   120  1.1900000000000E+00  5.0318263683000E-01 -1.2167366566000E+00
   121  1.2000000000000E+00  5.0718638044000E-01 -1.1895173021000E+00
   122  1.2100000000000E+00  5.0998896045000E-01 -1.1610064377000E+00
   123  1.2200000000000E+00  5.1161795526000E-01 -1.1312739058000E+00
   124  1.2300000000000E+00  5.1210345130000E-01 -1.1003930177000E+00
   125  1.2400000000000E+00  5.1147818840000E-01 -1.0684406307000E+00
   126  1.2500000000000E+00  5.0977736147000E-01 -1.0354966620000E+00
   127  1.2600000000000E+00  5.0703831468000E-01 -1.0016438266000E+00
   128  1.2700000000000E+00  5.0330061824000E-01 -9.6696758419000E-01
   129  1.2800000000000E+00  4.9860575814000E-01 -9.3155533056000E-01
   130  1.2900000000000E+00  4.9299704659000E-01 -8.9549666092000E-01
   131  1.3000000000000E+00  4.8651954186000E-01 -8.5888292679000E-01
   132  1.3100000000000E+00  4.7921954916000E-01 -8.2180613257000E-01
   133  1.3200000000000E+00  4.7114496931000E-01 -7.8436006837000E-01
   134  1.3300000000000E+00  4.6234469656000E-01 -7.4663867640000E-01
   135  1.3400000000000E+00  4.5286831356000E-01 -7.0873558408000E-01
   136  1.3500000000000E+00  4.4276689978000E-01 -6.7074604038000E-01
   137  1.3600000000000E+00  4.3209121714000E-01 -6.3276268776000E-01
   138  1.3700000000000E+00  4.2089281190000E-01 -5.9487831354000E-01
   139  1.3800000000000E+00  4.0922391645000E-01 -5.5718553259000E-01
   140  1.3900000000000E+00  3.9713553497000E-01 -5.1977267783000E-01
   141  1.4000000000000E+00  3.8467994764000E-01 -4.8272934324000E-01
   142  1.4100000000000E+00  3.7190791200000E-01 -4.4614030121000E-01
   143  1.4200000000000E+00  3.5886983020000E-01 -4.1008815914000E-01
   144  1.4300000000000E+00  3.4561640872000E-01 -3.7465469182000E-01
   145  1.4400000000000E+00  3.3219527407000E-01 -3.3991383085000E-01
   146  1.4500000000000E+00  3.1865556530000E-01 -3.0594127783000E-01
   147  1.4600000000000E+00  3.0504264492000E-01 -2.7280353731000E-01
   148  1.4700000000000E+00  2.9140190085000E-01 -2.4056586401000E-01
   149  1.4800000000000E+00  2.7777695258000E-01 -2.0928852616000E-01
   150  1.4900000000000E+00  2.6420821758000E-01 -1.7902401804000E-01
   151  1.5000000000000E+00  2.5073703972000E-01 -1.4982536246000E-01
   152  1.5100000000000E+00  2.3739850129000E-01 -1.2173173352000E-01
   153  1.5200000000000E+00  2.2423002164000E-01 -9.4785687139000E-02
   154  1.5300000000000E+00  2.1126212915000E-01 -6.9014787938000E-02
   155  1.5400000000000E+00  1.9852637092000E-01 -4.4447377174000E-02
   156  1.5500000000000E+00  1.8604918012000E-01 -2.1100389914000E-02
   157  1.5600000000000E+00  1.7385536467000E-01  1.0135370135000E-03
   158  1.5700000000000E+00  1.6196658124000E-01  2.1889637011000E-02
   159  1.5800000000000E+00  1.5040135115000E-01  4.1528673153000E-02
   160  1.5900000000000E+00  1.3917726065000E-01  5.9934770054000E-02
   161  1.6000000000000E+00  1.2830814454000E-01  7.7116485169000E-02
   162  1.6100000000000E+00  1.1780858186000E-01  9.3082745658000E-02
   163  1.6200000000000E+00  1.0768837372000E-01  1.0784807707000E-01
   164  1.6300000000000E+00  9.7958929802000E-02  1.2142652694000E-01
   165  1.6400000000000E+00  8.8626311896000E-02  1.3383810156000E-01
   166  1.6500000000000E+00  7.9698710722000E-02  1.4510194409000E-01
   167  1.6600000000000E+00  7.1178766295000E-02  1.5524299344000E-01
   168  1.6700000000000E+00  6.3071468075000E-02  1.6428531022000E-01
   169  1.6800000000000E+00  5.5376381994000E-02  1.7225815346000E-01
   170  1.6900000000000E+00  4.8095335284000E-02  1.7919023722000E-01
   171  1.7000000000000E+00  4.1225179460000E-02  1.8511449316000E-01
   172  1.7100000000000E+00  3.4764756272000E-02  1.9006386182000E-01
   173  1.7200000000000E+00  2.8708502474000E-02  1.9407433036000E-01
   174  1.7300000000000E+00  2.3052439128000E-02  1.9718256661000E-01
   175  1.7400000000000E+00  1.7788967031000E-02  1.9942696085000E-01
   176  1.7500000000000E+00  1.2911504943000E-02  2.0084728946000E-01
   177  1.7600000000000E+00  8.4107453650000E-03  2.0148376555000E-01
   178  1.7700000000000E+00  4.2777912313000E-03  2.0137852058000E-01
   179  1.7800000000000E+00  5.0191996311000E-04  2.0057309633000E-01
   180  1.7900000000000E+00 -2.9277325012000E-03  1.9911109148000E-01
   181  1.8000000000000E+00 -6.0230604814000E-03  1.9703499785000E-01
   182  1.8100000000000E+00 -8.7964805396000E-03  1.9438886181000E-01
   183  1.8200000000000E+00 -1.1260877225000E-02  1.9121587801000E-01
   184  1.8300000000000E+00 -1.3429741819000E-02  1.8755941046000E-01
   185  1.8400000000000E+00 -1.5316833069000E-02  1.8346323226000E-01
   186  1.8500000000000E+00 -1.6936188930000E-02  1.7896883488000E-01
   187  1.8600000000000E+00 -1.8302381852000E-02  1.7412052431000E-01
   188  1.8700000000000E+00 -1.9429468817000E-02  1.6895687180000E-01
   189  1.8800000000000E+00 -2.0332736531000E-02  1.6352232048000E-01
   190  1.8900000000000E+00 -2.1026015537000E-02  1.5785271819000E-01
   191  1.9000000000000E+00 -2.1524593909000E-02  1.5198976786000E-01
   192  1.9100000000000E+00 -2.1842398583000E-02  1.4596869619000E-01
   193  1.9200000000000E+00 -2.1994010933000E-02  1.3982649765000E-01
   194  1.9300000000000E+00 -2.1993610126000E-02  1.3359825177000E-01
   195  1.9400000000000E+00 -2.1854461542000E-02  1.2731501911000E-01
   196  1.9500000000000E+00 -2.1591137196000E-02  1.2101204180000E-01
   197  1.9600000000000E+00 -2.1215367067000E-02  1.1471450256000E-01
   198  1.9700000000000E+00 -2.0741334286000E-02  1.0845517065000E-01
   199  1.9800000000000E+00 -2.0180094481000E-02  1.0225660766000E-01
   200  1.9900000000000E+00 -1.9544028161000E-02  9.6145027690000E-02
   201  2.0000000000000E+00 -1.8844503092000E-02  9.0143374994000E-02
   202  2.0100000000000E+00 -1.8091368292000E-02  8.4269751000000E-02
   203  2.0200000000000E+00 -1.7296472668000E-02  7.8547712792000E-02
   204  2.0300000000000E+00 -1.6467511437000E-02  7.2988877319000E-02
   205  2.0400000000000E+00 -1.5614924942000E-02  6.7612114863000E-02
   206  2.0500000000000E+00 -1.4746330450000E-02  6.2428506037000E-02
   207  2.0600000000000E+00 -1.3869309680000E-02  5.7448717516000E-02
   208  2.0700000000000E+00 -1.2992145110000E-02  5.2685028631000E-02
   209  2.0800000000000E+00 -1.2119736780000E-02  4.8140908373000E-02
   210  2.0900000000000E+00 -1.1259619649000E-02  4.3826087981000E-02
   211  2.1000000000000E+00 -1.0416009723000E-02  3.9742123157000E-02
   212  2.1100000000000E+00 -9.5936780579000E-03  3.5891605135000E-02
   213  2.1200000000000E+00 -8.7976833819000E-03  3.2277621200000E-02
   214  2.1300000000000E+00 -8.0301666831000E-03  2.8896505864000E-02
   215  2.1400000000000E+00 -7.2954935100000E-03  2.5749174574000E-02
   216  2.1500000000000E+00 -6.5953225970000E-03  2.2830773415000E-02
   217  2.1600000000000E+00 -5.9314684211000E-03  2.0136507509000E-02
   218  2.1700000000000E+00 -5.3064433460000E-03  1.7662747607000E-02
   219  2.1800000000000E+00 -4.7200433734000E-03  1.5400736411000E-02
   220  2.1900000000000E+00 -4.1736794909000E-03  1.3344236236000E-02
   221  2.2000000000000E+00 -3.6673686110000E-03  1.1484762256000E-02
   222  2.2100000000000E+00 -3.2004479126000E-03  9.8126342919000E-03
   223  2.2200000000000E+00 -2.7734119426000E-03  8.3192805829000E-03
   224  2.2300000000000E+00 -2.3845810056000E-03  6.9939160924000E-03
   225  2.2400000000000E+00 -2.0330889072000E-03  5.8261103146000E-03
   226  2.2500000000000E+00 -1.7179090502000E-03  4.8052410181000E-03
   227  2.2600000000000E+00 -1.4370686400000E-03  3.9205552188000E-03
   228  2.2700000000000E+00 -1.1891289090000E-03  3.1604849755000E-03
   229  2.2800000000000E+00 -9.7216963708000E-04  2.5144678489000E-03
   230  2.2900000000000E+00 -7.8409238475000E-04  1.9721041709000E-03
   231  2.3000000000000E+00 -6.2292781591000E-04  1.5210765465000E-03
   232  2.3100000000000E+00 -4.8650799583000E-04  1.1527089746000E-03
   233  2.3200000000000E+00 -3.7263399642000E-04  8.5674741831000E-04
   234  2.3300000000000E+00 -2.7902298644000E-04  6.2194237222000E-04
   235  2.3400000000000E+00 -2.0367112165000E-04  4.4154857034000E-04
   236  2.3500000000000E+00 -1.4427935891000E-04  3.0580164933000E-04
   237  2.3600000000000E+00 -9.8672497334000E-05  2.0613738455000E-04
   238  2.3700000000000E+00 -6.5074926995000E-05  1.3746624492000E-04
   239  2.3800000000000E+00 -4.1208061412000E-05  9.1140821979000E-05
   240  2.3900000000000E+00 -2.5288487523000E-05  6.1950531268000E-05
   241  2.4000000000000E+00 -1.5793237290000E-05  4.6550238621000E-05
   242  2.4100000000000E+00 -1.0693342944000E-05  3.8996071921000E-05
   243  2.4200000000000E+00 -8.5835927948000E-06  3.6068013503000E-05
   244  2.4300000000000E+00 -8.0634857125000E-06  3.4614946938000E-05
   245  2.4400000000000E+00 -5.4818725194000E-06  2.4390426420000E-05
   246  2.4500000000000E+00 -2.5696385751000E-06  1.1865912093000E-05
   247  2.4600000000000E+00 -1.5127003999000E-07  7.1892521190000E-07
   248  2.4700000000000E+00  5.0540258700000E-07 -2.1585834520000E-06
   249  2.4800000000000E+00  4.2881731985000E-07 -1.8314864117000E-06
   250  2.4900000000000E+00  1.3579709086000E-08 -5.7999179404000E-08
   251  2.5000000000000E+00  0.0000000000000E+00  0.0000000000000E+00
   252  2.5100000000000E+00  0.0000000000000E+00  0.0000000000000E+00
   253  2.5200000000000E+00  0.0000000000000E+00  0.0000000000000E+00
   254  2.5300000000000E+00  0.0000000000000E+00  0.0000000000000E+00
   255  2.5400000000000E+00  0.0000000000000E+00  0.0000000000000E+00
   256  2.5500000000000E+00  0.0000000000000E+00  0.0000000000000E+00
   257  2.5600000000000E+00  0.0000000000000E+00  0.0000000000000E+00
   258  2.5700000000000E+00  0.0000000000000E+00  0.0000000000000E+00
   259  2.5800000000000E+00  0.0000000000000E+00  0.0000000000000E+00
   260  2.5900000000000E+00  0.0000000000000E+00  0.0000000000000E+00
   261  2.6000000000000E+00  0.0000000000000E+00  0.0000000000000E+00
   262  2.6100000000000E+00  0.0000000000000E+00  0.0000000000000E+00
   263  2.6200000000000E+00  0.0000000000000E+00  0.0000000000000E+00
   264  2.6300000000000E+00  0.0000000000000E+00  0.0000000000000E+00
   265  2.6400000000000E+00  0.0000000000000E+00  0.0000000000000E+00
   266  2.6500000000000E+00  0.0000000000000E+00  0.0000000000000E+00
   267  2.6600000000000E+00  0.0000000000000E+00  0.0000000000000E+00
   268  2.6700000000000E+00  0.0000000000000E+00  0.0000000000000E+00
   269  2.6800000000000E+00  0.0000000000000E+00  0.0000000000000E+00
   270  2.6900000000000E+00  0.0000000000000E+00  0.0000000000000E+00
   271  2.7000000000000E+00  0.0000000000000E+00  0.0000000000000E+00
   272  2.7100000000000E+00  0.0000000000000E+00  0.0000000000000E+00
   273  2.7200000000000E+00  0.0000000000000E+00  0.0000000000000E+00
   274  2.7300000000000E+00  0.0000000000000E+00  0.0000000000000E+00
   275  2.7400000000000E+00  0.0000000000000E+00  0.0000000000000E+00
   276  2.7500000000000E+00  0.0000000000000E+00  0.0000000000000E+00
   277  2.7600000000000E+00  0.0000000000000E+00  0.0000000000000E+00
   278  2.7700000000000E+00  0.0000000000000E+00  0.0000000000000E+00
   279  2.7800000000000E+00  0.0000000000000E+00  0.0000000000000E+00
   280  2.7900000000000E+00  0.0000000000000E+00  0.0000000000000E+00
   281  2.8000000000000E+00  0.0000000000000E+00  0.0000000000000E+00
   282  2.8100000000000E+00  0.0000000000000E+00  0.0000000000000E+00
   283  2.8200000000000E+00  0.0000000000000E+00  0.0000000000000E+00
   284  2.8300000000000E+00  0.0000000000000E+00  0.0000000000000E+00
   285  2.8400000000000E+00  0.0000000000000E+00  0.0000000000000E+00
   286  2.8500000000000E+00  0.0000000000000E+00  0.0000000000000E+00
   287  2.8600000000000E+00  0.0000000000000E+00  0.0000000000000E+00
   288  2.8700000000000E+00  0.0000000000000E+00  0.0000000000000E+00
   289  2.8800000000000E+00  0.0000000000000E+00  0.0000000000000E+00
   290  2.8900000000000E+00  0.0000000000000E+00  0.0000000000000E+00
   291  2.9000000000000E+00  0.0000000000000E+00  0.0000000000000E+00
   292  2.9100000000000E+00  0.0000000000000E+00  0.0000000000000E+00
   293  2.9200000000000E+00  0.0000000000000E+00  0.0000000000000E+00
   294  2.9300000000000E+00  0.0000000000000E+00  0.0000000000000E+00
   295  2.9400000000000E+00  0.0000000000000E+00  0.0000000000000E+00
   296  2.9500000000000E+00  0.0000000000000E+00  0.0000000000000E+00
   297  2.9600000000000E+00  0.0000000000000E+00  0.0000000000000E+00
   298  2.9700000000000E+00  0.0000000000000E+00  0.0000000000000E+00
   299  2.9800000000000E+00  0.0000000000000E+00  0.0000000000000E+00
   300  2.9900000000000E+00  0.0000000000000E+00  0.0000000000000E+00
   301  3.0000000000000E+00  0.0000000000000E+00  0.0000000000000E+00
   302  3.0100000000000E+00  0.0000000000000E+00  0.0000000000000E+00
   303  3.0200000000000E+00  0.0000000000000E+00  0.0000000000000E+00
   304  3.0300000000000E+00  0.0000000000000E+00  0.0000000000000E+00
   305  3.0400000000000E+00  0.0000000000000E+00  0.0000000000000E+00
   306  3.0500000000000E+00  0.0000000000000E+00  0.0000000000000E+00
   307  3.0600000000000E+00  0.0000000000000E+00  0.0000000000000E+00
   308  3.0700000000000E+00  0.0000000000000E+00  0.0000000000000E+00
   309  3.0800000000000E+00  0.0000000000000E+00  0.0000000000000E+00
   310  3.0900000000000E+00  0.0000000000000E+00  0.0000000000000E+00
   311  3.1000000000000E+00  0.0000000000000E+00  0.0000000000000E+00
   312  3.1100000000000E+00  0.0000000000000E+00  0.0000000000000E+00
   313  3.1200000000000E+00  0.0000000000000E+00  0.0000000000000E+00
   314  3.1300000000000E+00  0.0000000000000E+00  0.0000000000000E+00
   315  3.1400000000000E+00  0.0000000000000E+00  0.0000000000000E+00
   316  3.1500000000000E+00  0.0000000000000E+00  0.0000000000000E+00
   317  3.1600000000000E+00  0.0000000000000E+00  0.0000000000000E+00
   318  3.1700000000000E+00  0.0000000000000E+00  0.0000000000000E+00
   319  3.1800000000000E+00  0.0000000000000E+00  0.0000000000000E+00
   320  3.1900000000000E+00  0.0000000000000E+00  0.0000000000000E+00
   321  3.2000000000000E+00  0.0000000000000E+00  0.0000000000000E+00
   322  3.2100000000000E+00  0.0000000000000E+00  0.0000000000000E+00
   323  3.2200000000000E+00  0.0000000000000E+00  0.0000000000000E+00
   324  3.2300000000000E+00  0.0000000000000E+00  0.0000000000000E+00
   325  3.2400000000000E+00  0.0000000000000E+00  0.0000000000000E+00
   326  3.2500000000000E+00  0.0000000000000E+00  0.0000000000000E+00
   327  3.2600000000000E+00  0.0000000000000E+00  0.0000000000000E+00
   328  3.2700000000000E+00  0.0000000000000E+00  0.0000000000000E+00
   329  3.2800000000000E+00  0.0000000000000E+00  0.0000000000000E+00
   330  3.2900000000000E+00  0.0000000000000E+00  0.0000000000000E+00
   331  3.3000000000000E+00  0.0000000000000E+00  0.0000000000000E+00
   332  3.3100000000000E+00  0.0000000000000E+00  0.0000000000000E+00
   333  3.3200000000000E+00  0.0000000000000E+00  0.0000000000000E+00
   334  3.3300000000000E+00  0.0000000000000E+00  0.0000000000000E+00
   335  3.3400000000000E+00  0.0000000000000E+00  0.0000000000000E+00
   336  3.3500000000000E+00  0.0000000000000E+00  0.0000000000000E+00
   337  3.3600000000000E+00  0.0000000000000E+00  0.0000000000000E+00
   338  3.3700000000000E+00  0.0000000000000E+00  0.0000000000000E+00
   339  3.3800000000000E+00  0.0000000000000E+00  0.0000000000000E+00
   340  3.3900000000000E+00  0.0000000000000E+00  0.0000000000000E+00
   341  3.4000000000000E+00  0.0000000000000E+00  0.0000000000000E+00
   342  3.4100000000000E+00  0.0000000000000E+00  0.0000000000000E+00
   343  3.4200000000000E+00  0.0000000000000E+00  0.0000000000000E+00
   344  3.4300000000000E+00  0.0000000000000E+00  0.0000000000000E+00
   345  3.4400000000000E+00  0.0000000000000E+00  0.0000000000000E+00
   346  3.4500000000000E+00  0.0000000000000E+00  0.0000000000000E+00
   347  3.4600000000000E+00  0.0000000000000E+00  0.0000000000000E+00
   348  3.4700000000000E+00  0.0000000000000E+00  0.0000000000000E+00
   349  3.4800000000000E+00  0.0000000000000E+00  0.0000000000000E+00
   350  3.4900000000000E+00  0.0000000000000E+00  0.0000000000000E+00
   351  3.5000000000000E+00  0.0000000000000E+00  0.0000000000000E+00
   352  3.5100000000000E+00  0.0000000000000E+00  0.0000000000000E+00
   353  3.5200000000000E+00  0.0000000000000E+00  0.0000000000000E+00
   354  3.5300000000000E+00  0.0000000000000E+00  0.0000000000000E+00
   355  3.5400000000000E+00  0.0000000000000E+00  0.0000000000000E+00
   356  3.5500000000000E+00  0.0000000000000E+00  0.0000000000000E+00
   357  3.5600000000000E+00  0.0000000000000E+00  0.0000000000000E+00
   358  3.5700000000000E+00  0.0000000000000E+00  0.0000000000000E+00
   359  3.5800000000000E+00  0.0000000000000E+00  0.0000000000000E+00
   360  3.5900000000000E+00  0.0000000000000E+00  0.0000000000000E+00
   361  3.6000000000000E+00  0.0000000000000E+00  0.0000000000000E+00
   362  3.6100000000000E+00  0.0000000000000E+00  0.0000000000000E+00
   363  3.6200000000000E+00  0.0000000000000E+00  0.0000000000000E+00
   364  3.6300000000000E+00  0.0000000000000E+00  0.0000000000000E+00
   365  3.6400000000000E+00  0.0000000000000E+00  0.0000000000000E+00
   366  3.6500000000000E+00  0.0000000000000E+00  0.0000000000000E+00
   367  3.6600000000000E+00  0.0000000000000E+00  0.0000000000000E+00
   368  3.6700000000000E+00  0.0000000000000E+00  0.0000000000000E+00
   369  3.6800000000000E+00  0.0000000000000E+00  0.0000000000000E+00
   370  3.6900000000000E+00  0.0000000000000E+00  0.0000000000000E+00
   371  3.7000000000000E+00  0.0000000000000E+00  0.0000000000000E+00
   372  3.7100000000000E+00  0.0000000000000E+00  0.0000000000000E+00
   373  3.7200000000000E+00  0.0000000000000E+00  0.0000000000000E+00
   374  3.7300000000000E+00  0.0000000000000E+00  0.0000000000000E+00
   375  3.7400000000000E+00  0.0000000000000E+00  0.0000000000000E+00
   376  3.7500000000000E+00  0.0000000000000E+00  0.0000000000000E+00
   377  3.7600000000000E+00  0.0000000000000E+00  0.0000000000000E+00
   378  3.7700000000000E+00  0.0000000000000E+00  0.0000000000000E+00
   379  3.7800000000000E+00  0.0000000000000E+00  0.0000000000000E+00
   380  3.7900000000000E+00  0.0000000000000E+00  0.0000000000000E+00
   381  3.8000000000000E+00  0.0000000000000E+00  0.0000000000000E+00
   382  3.8100000000000E+00  0.0000000000000E+00  0.0000000000000E+00
   383  3.8200000000000E+00  0.0000000000000E+00  0.0000000000000E+00
   384  3.8300000000000E+00  0.0000000000000E+00  0.0000000000000E+00
   385  3.8400000000000E+00  0.0000000000000E+00  0.0000000000000E+00
   386  3.8500000000000E+00  0.0000000000000E+00  0.0000000000000E+00
   387  3.8600000000000E+00  0.0000000000000E+00  0.0000000000000E+00
   388  3.8700000000000E+00  0.0000000000000E+00  0.0000000000000E+00
   389  3.8800000000000E+00  0.0000000000000E+00  0.0000000000000E+00
   390  3.8900000000000E+00  0.0000000000000E+00  0.0000000000000E+00
   391  3.9000000000000E+00  0.0000000000000E+00  0.0000000000000E+00
   392  3.9100000000000E+00  0.0000000000000E+00  0.0000000000000E+00
   393  3.9200000000000E+00  0.0000000000000E+00  0.0000000000000E+00
   394  3.9300000000000E+00  0.0000000000000E+00  0.0000000000000E+00
   395  3.9400000000000E+00  0.0000000000000E+00  0.0000000000000E+00
   396  3.9500000000000E+00  0.0000000000000E+00  0.0000000000000E+00
   397  3.9600000000000E+00  0.0000000000000E+00  0.0000000000000E+00
   398  3.9700000000000E+00  0.0000000000000E+00  0.0000000000000E+00
   399  3.9800000000000E+00  0.0000000000000E+00  0.0000000000000E+00
   400  3.9900000000000E+00  0.0000000000000E+00  0.0000000000000E+00
   401  4.0000000000000E+00  0.0000000000000E+00  0.0000000000000E+00
   402  4.0100000000000E+00  0.0000000000000E+00  0.0000000000000E+00
   403  4.0200000000000E+00  0.0000000000000E+00  0.0000000000000E+00
   404  4.0300000000000E+00  0.0000000000000E+00  0.0000000000000E+00
   405  4.0400000000000E+00  0.0000000000000E+00  0.0000000000000E+00
   406  4.0500000000000E+00  0.0000000000000E+00  0.0000000000000E+00
   407  4.0600000000000E+00  0.0000000000000E+00  0.0000000000000E+00
   408  4.0700000000000E+00  0.0000000000000E+00  0.0000000000000E+00
   409  4.0800000000000E+00  0.0000000000000E+00  0.0000000000000E+00
   410  4.0900000000000E+00  0.0000000000000E+00  0.0000000000000E+00
   411  4.1000000000000E+00  0.0000000000000E+00  0.0000000000000E+00
   412  4.1100000000000E+00  0.0000000000000E+00  0.0000000000000E+00
   413  4.1200000000000E+00  0.0000000000000E+00  0.0000000000000E+00
   414  4.1300000000000E+00  0.0000000000000E+00  0.0000000000000E+00
   415  4.1400000000000E+00  0.0000000000000E+00  0.0000000000000E+00
   416  4.1500000000000E+00  0.0000000000000E+00  0.0000000000000E+00
   417  4.1600000000000E+00  0.0000000000000E+00  0.0000000000000E+00
   418  4.1700000000000E+00  0.0000000000000E+00  0.0000000000000E+00
   419  4.1800000000000E+00  0.0000000000000E+00  0.0000000000000E+00
   420  4.1900000000000E+00  0.0000000000000E+00  0.0000000000000E+00
   421  4.2000000000000E+00  0.0000000000000E+00  0.0000000000000E+00
   422  4.2100000000000E+00  0.0000000000000E+00  0.0000000000000E+00
   423  4.2200000000000E+00  0.0000000000000E+00  0.0000000000000E+00