Ru   ONCVPSP-2.1.1   r_core=    2.58325 2.52236 2.61425
    44.0000   16.0000   150105   zatom,zion,pspd
    8   11   2   4   600   0   pspcod,pspxc,lmax,lloc,mmax,r2well
    5.99000000   0.00000000   0.00000000   rchrg fchrg qchrg
    2   2   2   0   0   nproj
    1   1   extension_switch
       0                         4.2974251109000E+00  8.1184802390000E-01
     1  0.0000000000000E+00  0.0000000000000E+00  0.0000000000000E+00
     2  1.0000000000000E-02 -5.1919813231000E-02  6.4595222877000E-03
     3  2.0000000000000E-02 -1.0376836763000E-01  1.2889788633000E-02
     4  3.0000000000000E-02 -1.5547451826000E-01  1.9261569294000E-02
     5  4.0000000000000E-02 -2.0696734775000E-01  2.5545687041000E-02
     6  5.0000000000000E-02 -2.5817627965000E-01  3.1713043701000E-02
     7  6.0000000000000E-02 -3.0903119124000E-01  3.7734647049000E-02
     8  7.0000000000000E-02 -3.5946252561000E-01  4.3581638140000E-02
     9  8.0000000000000E-02 -4.0940140285000E-01  4.9225319211000E-02
    10  9.0000000000000E-02 -4.5877973015000E-01  5.4637182246000E-02
    11  1.0000000000000E-01 -5.0753031070000E-01  5.9788938292000E-02
    12  1.1000000000000E-01 -5.5558695114000E-01  6.4652547646000E-02
    13  1.2000000000000E-01 -6.0288456738000E-01  6.9200250963000E-02
    14  1.3000000000000E-01 -6.4935928877000E-01  7.3404601401000E-02
    15  1.4000000000000E-01 -6.9494856022000E-01  7.7238497850000E-02
    16  1.5000000000000E-01 -7.3959124233000E-01  8.0675219312000E-02
    17  1.6000000000000E-01 -7.8322770920000E-01  8.3688460505000E-02
    18  1.7000000000000E-01 -8.2579994386000E-01  8.6252368702000E-02
    19  1.8000000000000E-01 -8.6725163115000E-01  8.8341581871000E-02
    20  1.9000000000000E-01 -9.0752824788000E-01  8.9931268142000E-02
    21  2.0000000000000E-01 -9.4657715006000E-01  9.0997166550000E-02
    22  2.1000000000000E-01 -9.8434765728000E-01  9.1515629174000E-02
    23  2.2000000000000E-01 -1.0207911338000E+00  9.1463664515000E-02
    24  2.3000000000000E-01 -1.0558610662000E+00  9.0818982239000E-02
    25  2.4000000000000E-01 -1.0895131384000E+00  8.9560039087000E-02
    26  2.5000000000000E-01 -1.1217053018000E+00  8.7666086073000E-02
    27  2.6000000000000E-01 -1.1523978431000E+00  8.5117216766000E-02
    28  2.7000000000000E-01 -1.1815534475000E+00  8.1894416702000E-02
    29  2.8000000000000E-01 -1.2091372585000E+00  7.7979613610000E-02
    30  2.9000000000000E-01 -1.2351169330000E+00  7.3355728684000E-02
    31  3.0000000000000E-01 -1.2594626934000E+00  6.8006728543000E-02
    32  3.1000000000000E-01 -1.2821473745000E+00  6.1917677812000E-02
    33  3.2000000000000E-01 -1.3031464665000E+00  5.5074792071000E-02
    34  3.3000000000000E-01 -1.3224381535000E+00  4.7465491008000E-02
    35  3.4000000000000E-01 -1.3400033485000E+00  3.9078452935000E-02
    36  3.5000000000000E-01 -1.3558257214000E+00  2.9903666158000E-02
    37  3.6000000000000E-01 -1.3698917264000E+00  1.9932485025000E-02
    38  3.7000000000000E-01 -1.3821906200000E+00  9.1576801188000E-03
    39  3.8000000000000E-01 -1.3927144781000E+00 -2.4265086216000E-03
    40  3.9000000000000E-01 -1.4014582070000E+00 -1.4824319856000E-02
    41  4.0000000000000E-01 -1.4084195489000E+00 -2.8038422031000E-02
    42  4.1000000000000E-01 -1.4135990836000E+00 -4.2069864180000E-02
    43  4.2000000000000E-01 -1.4170002250000E+00 -5.6918028804000E-02
    44  4.3000000000000E-01 -1.4186292124000E+00 -7.2580586663000E-02
    45  4.4000000000000E-01 -1.4184950978000E+00 -8.9053453720000E-02
    46  4.5000000000000E-01 -1.4166097271000E+00 -1.0633075050000E-01
    47  4.6000000000000E-01 -1.4129877174000E+00 -1.2440476419000E-01
    48  4.7000000000000E-01 -1.4076464288000E+00 -1.4326591367000E-01
    49  4.8000000000000E-01 -1.4006059319000E+00 -1.6290271862000E-01
    50  4.9000000000000E-01 -1.3918889698000E+00 -1.8330177071000E-01
    51  5.0000000000000E-01 -1.3815209157000E+00 -2.0444770719000E-01
    52  5.1000000000000E-01 -1.3695297253000E+00 -2.2632319391000E-01
    53  5.2000000000000E-01 -1.3559458873000E+00 -2.4890891125000E-01
    54  5.3000000000000E-01 -1.3408023614000E+00 -2.7218353360000E-01
    55  5.4000000000000E-01 -1.3241345231000E+00 -2.9612373416000E-01
    56  5.5000000000000E-01 -1.3059800946000E+00 -3.2070417671000E-01
    57  5.6000000000000E-01 -1.2863790738000E+00 -3.4589752097000E-01
    58  5.7000000000000E-01 -1.2653736648000E+00 -3.7167443465000E-01
    59  5.8000000000000E-01 -1.2430081908000E+00 -3.9800360484000E-01
    60  5.9000000000000E-01 -1.2193290205000E+00 -4.2485176295000E-01
    61  6.0000000000000E-01 -1.1943844757000E+00 -4.5218371054000E-01
    62  6.1000000000000E-01 -1.1682247343000E+00 -4.7996235265000E-01
    63  6.2000000000000E-01 -1.1409017634000E+00 -5.0814873969000E-01
    64  6.3000000000000E-01 -1.1124691737000E+00 -5.3670211306000E-01
    65  6.4000000000000E-01 -1.0829821589000E+00 -5.6557995950000E-01
    66  6.5000000000000E-01 -1.0524973913000E+00 -5.9473806740000E-01
    67  6.6000000000000E-01 -1.0210728696000E+00 -6.2413060259000E-01
    68  6.7000000000000E-01 -9.8876785261000E-01 -6.5371017470000E-01
    69  6.8000000000000E-01 -9.5564274094000E-01 -6.8342791574000E-01
    70  6.9000000000000E-01 -9.2175894495000E-01 -7.1323357245000E-01
    71  7.0000000000000E-01 -8.8717875813000E-01 -7.4307560521000E-01
    72  7.1000000000000E-01 -8.5196526139000E-01 -7.7290127876000E-01
    73  7.2000000000000E-01 -8.1618219103000E-01 -8.0265677239000E-01
    74  7.3000000000000E-01 -7.7989382158000E-01 -8.3228728897000E-01
    75  7.4000000000000E-01 -7.4316483056000E-01 -8.6173717926000E-01
    76  7.5000000000000E-01 -7.0606015484000E-01 -8.9095007901000E-01
    77  7.6000000000000E-01 -6.6864489445000E-01 -9.1986902109000E-01
    78  7.7000000000000E-01 -6.3098417245000E-01 -9.4843657856000E-01
    79  7.8000000000000E-01 -5.9314300636000E-01 -9.7659500620000E-01
    80  7.9000000000000E-01 -5.5518617936000E-01 -1.0042863866000E+00
    81  8.0000000000000E-01 -5.1717811185000E-01 -1.0314527808000E+00
    82  8.1000000000000E-01 -4.7918273346000E-01 -1.0580363825000E+00
    83  8.2000000000000E-01 -4.4126335579000E-01 -1.0839796765000E+00
    84  8.3000000000000E-01 -4.0348254627000E-01 -1.1092255989000E+00
    85  8.4000000000000E-01 -3.6590200334000E-01 -1.1337177014000E+00
    86  8.5000000000000E-01 -3.2858243327000E-01 -1.1574003166000E+00
    87  8.6000000000000E-01 -2.9158342883000E-01 -1.1802187251000E+00
    88  8.7000000000000E-01 -2.5496335028000E-01 -1.2021193235000E+00
    89  8.8000000000000E-01 -2.1877920873000E-01 -1.2230497935000E+00
    90  8.9000000000000E-01 -1.8308655243000E-01 -1.2429592695000E+00
    91  9.0000000000000E-01 -1.4793935605000E-01 -1.2617985068000E+00
    92  9.1000000000000E-01 -1.1338991348000E-01 -1.2795200473000E+00
    93  9.2000000000000E-01 -7.9488734241000E-02 -1.2960783835000E+00
    94  9.3000000000000E-01 -4.6284444072000E-02 -1.3114301200000E+00
    95  9.4000000000000E-01 -1.3823689771000E-02 -1.3255341307000E+00
    96  9.5000000000000E-01  1.7848951234000E-02 -1.3383517121000E+00
    97  9.6000000000000E-01  4.8691056342000E-02 -1.3498467321000E+00
    98  9.7000000000000E-01  7.8662370950000E-02 -1.3599856861000E+00
    99  9.8000000000000E-01  1.0772507220000E-01 -1.3687380723000E+00
   100  9.9000000000000E-01  1.3584368425000E-01 -1.3760763310000E+00
   101  1.0000000000000E+00  1.6298516901000E-01 -1.3819759994000E+00
   102  1.0100000000000E+00  1.8911899299000E-01 -1.3864158378000E+00
   103  1.0200000000000E+00  2.1421717797000E-01 -1.3893779343000E+00
   104  1.0300000000000E+00  2.3825428823000E-01 -1.3908477201000E+00
   105  1.0400000000000E+00  2.6120757610000E-01 -1.3908142021000E+00
   106  1.0500000000000E+00  2.8305706788000E-01 -1.3892701217000E+00
   107  1.0600000000000E+00  3.0378542259000E-01 -1.3862117883000E+00
   108  1.0700000000000E+00  3.2337801453000E-01 -1.3816392211000E+00
   109  1.0800000000000E+00  3.4182286566000E-01 -1.3755560758000E+00
   110  1.0900000000000E+00  3.5911082351000E-01 -1.3679699265000E+00
   111  1.1000000000000E+00  3.7523557196000E-01 -1.3588923127000E+00
   112  1.1100000000000E+00  3.9019343293000E-01 -1.3483384662000E+00
   113  1.1200000000000E+00  4.0398338484000E-01 -1.3363273509000E+00
   114  1.1300000000000E+00  4.1660705911000E-01 -1.3228816708000E+00
   115  1.1400000000000E+00  4.2806898297000E-01 -1.3080282589000E+00
   116  1.1500000000000E+00  4.3837615673000E-01 -1.2917974438000E+00
   117  1.1600000000000E+00  4.4753806933000E-01 -1.2742230766000E+00
   118  1.1700000000000E+00  4.5556681048000E-01 -1.2553427100000E+00
   119  1.1800000000000E+00  4.6247704629000E-01 -1.2351975647000E+00
   120  1.1900000000000E+00  4.6828571993000E-01 -1.2138320631000E+00
   121  1.2000000000000E+00  4.7301199487000E-01 -1.1912937427000E+00
   122  1.2100000000000E+00  4.7667753208000E-01 -1.1676336673000E+00
   123  1.2200000000000E+00  4.7930601091000E-01 -1.1429056748000E+00
   124  1.2300000000000E+00  4.8092312633000E-01 -1.1171663734000E+00
   125  1.2400000000000E+00  4.8155665461000E-01 -1.0904752017000E+00
   126  1.2500000000000E+00  4.8123617827000E-01 -1.0628939711000E+00
   127  1.2600000000000E+00  4.7999302769000E-01 -1.0344867962000E+00
   128  1.2700000000000E+00  4.7786022084000E-01 -1.0053199236000E+00
   129  1.2800000000000E+00  4.7487220104000E-01 -9.7546126038000E-01
   130  1.2900000000000E+00  4.7106492623000E-01 -9.4498059426000E-01
   131  1.3000000000000E+00  4.6647556380000E-01 -9.1394894658000E-01
   132  1.3100000000000E+00  4.6114227327000E-01 -8.8243818111000E-01
   133  1.3200000000000E+00  4.5510456524000E-01 -8.5052173839000E-01
   134  1.3300000000000E+00  4.4840242471000E-01 -8.1827286172000E-01
   135  1.3400000000000E+00  4.4107656593000E-01 -7.8576513816000E-01
   136  1.3500000000000E+00  4.3316884480000E-01 -7.5307332249000E-01
   137  1.3600000000000E+00  4.2472058500000E-01 -7.2026997827000E-01
   138  1.3700000000000E+00  4.1577408232000E-01 -6.8742850287000E-01
   139  1.3800000000000E+00  4.0637167143000E-01 -6.5462125289000E-01
   140  1.3900000000000E+00  3.9655496588000E-01 -6.2191800755000E-01
   141  1.4000000000000E+00  3.8636672086000E-01 -5.8938972178000E-01
   142  1.4100000000000E+00  3.7584777693000E-01 -5.5710235658000E-01
   143  1.4200000000000E+00  3.6503943714000E-01 -5.2512166380000E-01
   144  1.4300000000000E+00  3.5398239532000E-01 -4.9351102871000E-01
   145  1.4400000000000E+00  3.4271533631000E-01 -4.6232859736000E-01
   146  1.4500000000000E+00  3.3127828154000E-01 -4.3163409284000E-01
   147  1.4600000000000E+00  3.1970720877000E-01 -4.0147782628000E-01
   148  1.4700000000000E+00  3.0803922829000E-01 -3.7191125228000E-01
   149  1.4800000000000E+00  2.9630869067000E-01 -3.4297900992000E-01
   150  1.4900000000000E+00  2.8454848167000E-01 -3.1472153493000E-01
   151  1.5000000000000E+00  2.7279092322000E-01 -2.8717694053000E-01
   152  1.5100000000000E+00  2.6106398488000E-01 -2.6037314470000E-01
   153  1.5200000000000E+00  2.4939739662000E-01 -2.3434046788000E-01
   154  1.5300000000000E+00  2.3781416555000E-01 -2.0909419816000E-01
   155  1.5400000000000E+00  2.2633944862000E-01 -1.8465278374000E-01
   156  1.5500000000000E+00  2.1499358388000E-01 -1.6102605851000E-01
   157  1.5600000000000E+00  2.0379770010000E-01 -1.3822503255000E-01
   158  1.5700000000000E+00  1.9277060693000E-01 -1.1625855010000E-01
   159  1.5800000000000E+00  1.8193046152000E-01 -9.5134545840000E-02
   160  1.5900000000000E+00  1.7129423777000E-01 -7.4859714643000E-02
   161  1.6000000000000E+00  1.6087726960000E-01 -5.5439014934000E-02
   162  1.6100000000000E+00  1.5069456901000E-01 -3.6876673941000E-02
   163  1.6200000000000E+00  1.4075875739000E-01 -1.9174547652000E-02
   164  1.6300000000000E+00  1.3108279808000E-01 -2.3342208639000E-03
   165  1.6400000000000E+00  1.2167673533000E-01  1.3645598304000E-02
   166  1.6500000000000E+00  1.1255141594000E-01  2.8766113532000E-02
   167  1.6600000000000E+00  1.0371445972000E-01  4.3031738041000E-02
   168  1.6700000000000E+00  9.5174552987000E-02  5.6446572439000E-02
   169  1.6800000000000E+00  8.6937056588000E-02  6.9018061903000E-02
   170  1.6900000000000E+00  7.9008478371000E-02  8.0753267482000E-02
   171  1.7000000000000E+00  7.1392095364000E-02  9.1662523639000E-02
   172  1.7100000000000E+00  6.4092246073000E-02  1.0175586396000E-01
   173  1.7200000000000E+00  5.7110305289000E-02  1.1104632711000E-01
   174  1.7300000000000E+00  5.0448479505000E-02  1.1954687318000E-01
   175  1.7400000000000E+00  4.4106425022000E-02  1.2727303079000E-01
   176  1.7500000000000E+00  3.8084284072000E-02  1.3424057427000E-01
   177  1.7600000000000E+00  3.2380174237000E-02  1.4046729506000E-01
   178  1.7700000000000E+00  2.6992275438000E-02  1.4597159344000E-01
   179  1.7800000000000E+00  2.1917334240000E-02  1.5077330274000E-01
   180  1.7900000000000E+00  1.7151709546000E-02  1.5489317399000E-01
   181  1.8000000000000E+00  1.2690923170000E-02  1.5835288791000E-01
   182  1.8100000000000E+00  8.5296986223000E-03  1.6117517599000E-01
   183  1.8200000000000E+00  4.6624490732000E-03  1.6338341521000E-01
   184  1.8300000000000E+00  1.0824973943000E-03  1.6500184442000E-01
   185  1.8400000000000E+00 -2.2167717541000E-03  1.6605543805000E-01
   186  1.8500000000000E+00 -5.2431568751000E-03  1.6656938673000E-01
   187  1.8600000000000E+00 -8.0042586174000E-03  1.6657021412000E-01
   188  1.8700000000000E+00 -1.0508662230000E-02  1.6608361102000E-01
   189  1.8800000000000E+00 -1.2764979477000E-02  1.6513708745000E-01
   190  1.8900000000000E+00 -1.4782277758000E-02  1.6375691603000E-01
   191  1.9000000000000E+00 -1.6569956748000E-02  1.6197080268000E-01
   192  1.9100000000000E+00 -1.8137555384000E-02  1.5980574576000E-01
   193  1.9200000000000E+00 -1.9494887694000E-02  1.5728881173000E-01
   194  1.9300000000000E+00 -2.0652025750000E-02  1.5444790020000E-01
   195  1.9400000000000E+00 -2.1618798398000E-02  1.5130862994000E-01
   196  1.9500000000000E+00 -2.2405867575000E-02  1.4789986919000E-01
   197  1.9600000000000E+00 -2.3022916005000E-02  1.4424585751000E-01
   198  1.9700000000000E+00 -2.3480624842000E-02  1.4037427752000E-01
   199  1.9800000000000E+00 -2.3788936596000E-02  1.3630982184000E-01
   200  1.9900000000000E+00 -2.3957993842000E-02  1.3207746940000E-01
   201  2.0000000000000E+00 -2.3998190724000E-02  1.2770282402000E-01
   202  2.0100000000000E+00 -2.3918772900000E-02  1.2320750861000E-01
   203  2.0200000000000E+00 -2.3730474181000E-02  1.1861753766000E-01
   204  2.0300000000000E+00 -2.3441944371000E-02  1.1395242194000E-01
   205  2.0400000000000E+00 -2.3063061224000E-02  1.0923508816000E-01
   206  2.0500000000000E+00 -2.2602922709000E-02  1.0448606000000E-01
   207  2.0600000000000E+00 -2.2069829049000E-02  9.9723386242000E-02
   208  2.0700000000000E+00 -2.1473530715000E-02  9.4969008786000E-02
   209  2.0800000000000E+00 -2.0821006215000E-02  9.0237081359000E-02
   210  2.0900000000000E+00 -2.0121064096000E-02  8.5546572189000E-02
   211  2.1000000000000E+00 -1.9381043100000E-02  8.0912396253000E-02
   212  2.1100000000000E+00 -1.8607718389000E-02  7.6347817342000E-02
   213  2.1200000000000E+00 -1.7809236598000E-02  7.1869549959000E-02
   214  2.1300000000000E+00 -1.6990721218000E-02  6.7486371852000E-02
   215  2.1400000000000E+00 -1.6159193987000E-02  6.3211778531000E-02
   216  2.1500000000000E+00 -1.5320234951000E-02  5.9055525960000E-02
   217  2.1600000000000E+00 -1.4478506994000E-02  5.5024946774000E-02
   218  2.1700000000000E+00 -1.3640517981000E-02  5.1131797334000E-02
   219  2.1800000000000E+00 -1.2809330701000E-02  4.7379322817000E-02
   220  2.1900000000000E+00 -1.1989738551000E-02  4.3774830977000E-02
   221  2.2000000000000E+00 -1.1185852304000E-02  4.0323909522000E-02
   222  2.2100000000000E+00 -1.0400161994000E-02  3.7028211563000E-02
   223  2.2200000000000E+00 -9.6368540284000E-03  3.3893205754000E-02
   224  2.2300000000000E+00 -8.8978072820000E-03  3.0919012814000E-02
   225  2.2400000000000E+00 -8.1851831265000E-03  2.8106275078000E-02
   226  2.2500000000000E+00 -7.5019400923000E-03  2.5457288568000E-02
   227  2.2600000000000E+00 -6.8485615314000E-03  2.2968891236000E-02
   228  2.2700000000000E+00 -6.2268757367000E-03  2.0640668661000E-02
   229  2.2800000000000E+00 -5.6380380169000E-03  1.8470746874000E-02
   230  2.2900000000000E+00 -5.0820761869000E-03  1.6454873239000E-02
   231  2.3000000000000E+00 -4.5601440182000E-03  1.4590855617000E-02
   232  2.3100000000000E+00 -4.0719807326000E-03  1.2873829219000E-02
   233  2.3200000000000E+00 -3.6172191143000E-03  1.1298637170000E-02
   234  2.3300000000000E+00 -3.1963032379000E-03  9.8613144416000E-03
   235  2.3400000000000E+00 -2.8080024174000E-03  8.5552785517000E-03
   236  2.3500000000000E+00 -2.4516764536000E-03  7.3746797259000E-03
   237  2.3600000000000E+00 -2.1268028780000E-03  6.3136752916000E-03
   238  2.3700000000000E+00 -1.8318899212000E-03  5.3654118068000E-03
   239  2.3800000000000E+00 -1.5658868443000E-03  4.5231872284000E-03
   240  2.3900000000000E+00 -1.3276030411000E-03  3.7802109301000E-03
   241  2.4000000000000E+00 -1.1154361959000E-03  3.1297216848000E-03
   242  2.4100000000000E+00 -9.2797442035000E-04  2.5644013627000E-03
   243  2.4200000000000E+00 -7.6369109687000E-04  2.0774148174000E-03
   244  2.4300000000000E+00 -6.2095335886000E-04  1.6623478641000E-03
   245  2.4400000000000E+00 -4.9808664741000E-04  1.3116089548000E-03
   246  2.4500000000000E+00 -3.9350075639000E-04  1.0190249023000E-03
   247  2.4600000000000E+00 -3.0561094441000E-04  7.7878525707000E-04
   248  2.4700000000000E+00 -2.3260034966000E-04  5.8342061315000E-04
   249  2.4800000000000E+00 -1.7301014329000E-04  4.2789010638000E-04
   250  2.4900000000000E+00 -1.2538282293000E-04  3.0724520353000E-04
   251  2.5000000000000E+00 -8.7890747707000E-05  2.1455550026000E-04
   252  2.5100000000000E+00 -5.9319256336000E-05  1.4614130896000E-04
   253  2.5200000000000E+00 -3.8413231352000E-05  9.8159027706000E-05
   254  2.5300000000000E+00 -2.3464580772000E-05  6.4620424427000E-05
   255  2.5400000000000E+00 -1.3539343852000E-05  4.3216708696000E-05
   256  2.5500000000000E+00 -7.6470663459000E-06  3.1408655551000E-05
   257  2.5600000000000E+00 -4.2884493456000E-06  2.5076556038000E-05
   258  2.5700000000000E+00 -2.8201368417000E-06  2.2377658158000E-05
   259  2.5800000000000E+00 -2.5890321785000E-06  2.1441491909000E-05
   260  2.5900000000000E+00 -1.9101707653000E-06  1.6491309262000E-05
   261  2.6000000000000E+00 -9.6664814904000E-07  9.2027393115000E-06
   262  2.6100000000000E+00 -2.3601937376000E-07  2.4387212760000E-06
   263  2.6200000000000E+00  1.2458596027000E-07 -9.9518384237000E-07
   264  2.6300000000000E+00  1.7254529178000E-07 -1.3782795918000E-06
   265  2.6400000000000E+00  8.0429821708000E-08 -6.4246772940000E-07
   266  2.6500000000000E+00  0.0000000000000E+00  0.0000000000000E+00
   267  2.6600000000000E+00  0.0000000000000E+00  0.0000000000000E+00
   268  2.6700000000000E+00  0.0000000000000E+00  0.0000000000000E+00
   269  2.6800000000000E+00  0.0000000000000E+00  0.0000000000000E+00
   270  2.6900000000000E+00  0.0000000000000E+00  0.0000000000000E+00
   271  2.7000000000000E+00  0.0000000000000E+00  0.0000000000000E+00
   272  2.7100000000000E+00  0.0000000000000E+00  0.0000000000000E+00
   273  2.7200000000000E+00  0.0000000000000E+00  0.0000000000000E+00
   274  2.7300000000000E+00  0.0000000000000E+00  0.0000000000000E+00
   275  2.7400000000000E+00  0.0000000000000E+00  0.0000000000000E+00
   276  2.7500000000000E+00  0.0000000000000E+00  0.0000000000000E+00
   277  2.7600000000000E+00  0.0000000000000E+00  0.0000000000000E+00
   278  2.7700000000000E+00  0.0000000000000E+00  0.0000000000000E+00
   279  2.7800000000000E+00  0.0000000000000E+00  0.0000000000000E+00
   280  2.7900000000000E+00  0.0000000000000E+00  0.0000000000000E+00
   281  2.8000000000000E+00  0.0000000000000E+00  0.0000000000000E+00
   282  2.8100000000000E+00  0.0000000000000E+00  0.0000000000000E+00
   283  2.8200000000000E+00  0.0000000000000E+00  0.0000000000000E+00
   284  2.8300000000000E+00  0.0000000000000E+00  0.0000000000000E+00
   285  2.8400000000000E+00  0.0000000000000E+00  0.0000000000000E+00
   286  2.8500000000000E+00  0.0000000000000E+00  0.0000000000000E+00
   287  2.8600000000000E+00  0.0000000000000E+00  0.0000000000000E+00
   288  2.8700000000000E+00  0.0000000000000E+00  0.0000000000000E+00
   289  2.8800000000000E+00  0.0000000000000E+00  0.0000000000000E+00
   290  2.8900000000000E+00  0.0000000000000E+00  0.0000000000000E+00
   291  2.9000000000000E+00  0.0000000000000E+00  0.0000000000000E+00
   292  2.9100000000000E+00  0.0000000000000E+00  0.0000000000000E+00
   293  2.9200000000000E+00  0.0000000000000E+00  0.0000000000000E+00
   294  2.9300000000000E+00  0.0000000000000E+00  0.0000000000000E+00
   295  2.9400000000000E+00  0.0000000000000E+00  0.0000000000000E+00
   296  2.9500000000000E+00  0.0000000000000E+00  0.0000000000000E+00
   297  2.9600000000000E+00  0.0000000000000E+00  0.0000000000000E+00
   298  2.9700000000000E+00  0.0000000000000E+00  0.0000000000000E+00
   299  2.9800000000000E+00  0.0000000000000E+00  0.0000000000000E+00
   300  2.9900000000000E+00  0.0000000000000E+00  0.0000000000000E+00
   301  3.0000000000000E+00  0.0000000000000E+00  0.0000000000000E+00
   302  3.0100000000000E+00  0.0000000000000E+00  0.0000000000000E+00
   303  3.0200000000000E+00  0.0000000000000E+00  0.0000000000000E+00
   304  3.0300000000000E+00  0.0000000000000E+00  0.0000000000000E+00
   305  3.0400000000000E+00  0.0000000000000E+00  0.0000000000000E+00
   306  3.0500000000000E+00  0.0000000000000E+00  0.0000000000000E+00
   307  3.0600000000000E+00  0.0000000000000E+00  0.0000000000000E+00
   308  3.0700000000000E+00  0.0000000000000E+00  0.0000000000000E+00
   309  3.0800000000000E+00  0.0000000000000E+00  0.0000000000000E+00
   310  3.0900000000000E+00  0.0000000000000E+00  0.0000000000000E+00
   311  3.1000000000000E+00  0.0000000000000E+00  0.0000000000000E+00
   312  3.1100000000000E+00  0.0000000000000E+00  0.0000000000000E+00
   313  3.1200000000000E+00  0.0000000000000E+00  0.0000000000000E+00
   314  3.1300000000000E+00  0.0000000000000E+00  0.0000000000000E+00
   315  3.1400000000000E+00  0.0000000000000E+00  0.0000000000000E+00
   316  3.1500000000000E+00  0.0000000000000E+00  0.0000000000000E+00
   317  3.1600000000000E+00  0.0000000000000E+00  0.0000000000000E+00
   318  3.1700000000000E+00  0.0000000000000E+00  0.0000000000000E+00
   319  3.1800000000000E+00  0.0000000000000E+00  0.0000000000000E+00
   320  3.1900000000000E+00  0.0000000000000E+00  0.0000000000000E+00
   321  3.2000000000000E+00  0.0000000000000E+00  0.0000000000000E+00
   322  3.2100000000000E+00  0.0000000000000E+00  0.0000000000000E+00
   323  3.2200000000000E+00  0.0000000000000E+00  0.0000000000000E+00
   324  3.2300000000000E+00  0.0000000000000E+00  0.0000000000000E+00
   325  3.2400000000000E+00  0.0000000000000E+00  0.0000000000000E+00
   326  3.2500000000000E+00  0.0000000000000E+00  0.0000000000000E+00
   327  3.2600000000000E+00  0.0000000000000E+00  0.0000000000000E+00
   328  3.2700000000000E+00  0.0000000000000E+00  0.0000000000000E+00
   329  3.2800000000000E+00  0.0000000000000E+00  0.0000000000000E+00
   330  3.2900000000000E+00  0.0000000000000E+00  0.0000000000000E+00
   331  3.3000000000000E+00  0.0000000000000E+00  0.0000000000000E+00
   332  3.3100000000000E+00  0.0000000000000E+00  0.0000000000000E+00
   333  3.3200000000000E+00  0.0000000000000E+00  0.0000000000000E+00
   334  3.3300000000000E+00  0.0000000000000E+00  0.0000000000000E+00
   335  3.3400000000000E+00  0.0000000000000E+00  0.0000000000000E+00
   336  3.3500000000000E+00  0.0000000000000E+00  0.0000000000000E+00
   337  3.3600000000000E+00  0.0000000000000E+00  0.0000000000000E+00
   338  3.3700000000000E+00  0.0000000000000E+00  0.0000000000000E+00
   339  3.3800000000000E+00  0.0000000000000E+00  0.0000000000000E+00
   340  3.3900000000000E+00  0.0000000000000E+00  0.0000000000000E+00
   341  3.4000000000000E+00  0.0000000000000E+00  0.0000000000000E+00
   342  3.4100000000000E+00  0.0000000000000E+00  0.0000000000000E+00
   343  3.4200000000000E+00  0.0000000000000E+00  0.0000000000000E+00
   344  3.4300000000000E+00  0.0000000000000E+00  0.0000000000000E+00
   345  3.4400000000000E+00  0.0000000000000E+00  0.0000000000000E+00
   346  3.4500000000000E+00  0.0000000000000E+00  0.0000000000000E+00
   347  3.4600000000000E+00  0.0000000000000E+00  0.0000000000000E+00
   348  3.4700000000000E+00  0.0000000000000E+00  0.0000000000000E+00
   349  3.4800000000000E+00  0.0000000000000E+00  0.0000000000000E+00
   350  3.4900000000000E+00  0.0000000000000E+00  0.0000000000000E+00
   351  3.5000000000000E+00  0.0000000000000E+00  0.0000000000000E+00
   352  3.5100000000000E+00  0.0000000000000E+00  0.0000000000000E+00
   353  3.5200000000000E+00  0.0000000000000E+00  0.0000000000000E+00
   354  3.5300000000000E+00  0.0000000000000E+00  0.0000000000000E+00
   355  3.5400000000000E+00  0.0000000000000E+00  0.0000000000000E+00
   356  3.5500000000000E+00  0.0000000000000E+00  0.0000000000000E+00
   357  3.5600000000000E+00  0.0000000000000E+00  0.0000000000000E+00
   358  3.5700000000000E+00  0.0000000000000E+00  0.0000000000000E+00
   359  3.5800000000000E+00  0.0000000000000E+00  0.0000000000000E+00
   360  3.5900000000000E+00  0.0000000000000E+00  0.0000000000000E+00
   361  3.6000000000000E+00  0.0000000000000E+00  0.0000000000000E+00
   362  3.6100000000000E+00  0.0000000000000E+00  0.0000000000000E+00
   363  3.6200000000000E+00  0.0000000000000E+00  0.0000000000000E+00
   364  3.6300000000000E+00  0.0000000000000E+00  0.0000000000000E+00
   365  3.6400000000000E+00  0.0000000000000E+00  0.0000000000000E+00
   366  3.6500000000000E+00  0.0000000000000E+00  0.0000000000000E+00
   367  3.6600000000000E+00  0.0000000000000E+00  0.0000000000000E+00
   368  3.6700000000000E+00  0.0000000000000E+00  0.0000000000000E+00
   369  3.6800000000000E+00  0.0000000000000E+00  0.0000000000000E+00
   370  3.6900000000000E+00  0.0000000000000E+00  0.0000000000000E+00
   371  3.7000000000000E+00  0.0000000000000E+00  0.0000000000000E+00
   372  3.7100000000000E+00  0.0000000000000E+00  0.0000000000000E+00
   373  3.7200000000000E+00  0.0000000000000E+00  0.0000000000000E+00
   374  3.7300000000000E+00  0.0000000000000E+00  0.0000000000000E+00
   375  3.7400000000000E+00  0.0000000000000E+00  0.0000000000000E+00
   376  3.7500000000000E+00  0.0000000000000E+00  0.0000000000000E+00
   377  3.7600000000000E+00  0.0000000000000E+00  0.0000000000000E+00
   378  3.7700000000000E+00  0.0000000000000E+00  0.0000000000000E+00
   379  3.7800000000000E+00  0.0000000000000E+00  0.0000000000000E+00
   380  3.7900000000000E+00  0.0000000000000E+00  0.0000000000000E+00
   381  3.8000000000000E+00  0.0000000000000E+00  0.0000000000000E+00
   382  3.8100000000000E+00  0.0000000000000E+00  0.0000000000000E+00
   383  3.8200000000000E+00  0.0000000000000E+00  0.0000000000000E+00
   384  3.8300000000000E+00  0.0000000000000E+00  0.0000000000000E+00
   385  3.8400000000000E+00  0.0000000000000E+00  0.0000000000000E+00
   386  3.8500000000000E+00  0.0000000000000E+00  0.0000000000000E+00
   387  3.8600000000000E+00  0.0000000000000E+00  0.0000000000000E+00
   388  3.8700000000000E+00  0.0000000000000E+00  0.0000000000000E+00
   389  3.8800000000000E+00  0.0000000000000E+00  0.0000000000000E+00
   390  3.8900000000000E+00  0.0000000000000E+00  0.0000000000000E+00
   391  3.9000000000000E+00  0.0000000000000E+00  0.0000000000000E+00
   392  3.9100000000000E+00  0.0000000000000E+00  0.0000000000000E+00
   393  3.9200000000000E+00  0.0000000000000E+00  0.0000000000000E+00
   394  3.9300000000000E+00  0.0000000000000E+00  0.0000000000000E+00
   395  3.9400000000000E+00  0.0000000000000E+00  0.0000000000000E+00
   396  3.9500000000000E+00  0.0000000000000E+00  0.0000000000000E+00
   397  3.9600000000000E+00  0.0000000000000E+00  0.0000000000000E+00
   398  3.9700000000000E+00  0.0000000000000E+00  0.0000000000000E+00
   399  3.9800000000000E+00  0.0000000000000E+00  0.0000000000000E+00
   400  3.9900000000000E+00  0.0000000000000E+00  0.0000000000000E+00
   401  4.0000000000000E+00  0.0000000000000E+00  0.0000000000000E+00
   402  4.0100000000000E+00  0.0000000000000E+00  0.0000000000000E+00
   403  4.0200000000000E+00  0.0000000000000E+00  0.0000000000000E+00
   404  4.0300000000000E+00  0.0000000000000E+00  0.0000000000000E+00
   405  4.0400000000000E+00  0.0000000000000E+00  0.0000000000000E+00
   406  4.0500000000000E+00  0.0000000000000E+00  0.0000000000000E+00
   407  4.0600000000000E+00  0.0000000000000E+00  0.0000000000000E+00
   408  4.0700000000000E+00  0.0000000000000E+00  0.0000000000000E+00
   409  4.0800000000000E+00  0.0000000000000E+00  0.0000000000000E+00
   410  4.0900000000000E+00  0.0000000000000E+00  0.0000000000000E+00
   411  4.1000000000000E+00  0.0000000000000E+00  0.0000000000000E+00
   412  4.1100000000000E+00  0.0000000000000E+00  0.0000000000000E+00
   413  4.1200000000000E+00  0.0000000000000E+00  0.0000000000000E+00
   414  4.1300000000000E+00  0.0000000000000E+00  0.0000000000000E+00
   415  4.1400000000000E+00  0.0000000000000E+00  0.0000000000000E+00
   416  4.1500000000000E+00  0.0000000000000E+00  0.0000000000000E+00
   417  4.1600000000000E+00  0.0000000000000E+00  0.0000000000000E+00
   418  4.1700000000000E+00  0.0000000000000E+00  0.0000000000000E+00
   419  4.1800000000000E+00  0.0000000000000E+00  0.0000000000000E+00
   420  4.1900000000000E+00  0.0000000000000E+00  0.0000000000000E+00
   421  4.2000000000000E+00  0.0000000000000E+00  0.0000000000000E+00
   422  4.2100000000000E+00  0.0000000000000E+00  0.0000000000000E+00
   423  4.2200000000000E+00  0.0000000000000E+00  0.0000000000000E+00