Pd   ONCVPSP-2.1.1   r_core=    2.44164 2.41269 2.24604
    46.0000   18.0000   150105   zatom,zion,pspd
    8   11   2   4   600   0   pspcod,pspxc,lmax,lloc,mmax,r2well
    5.99000000   0.00000000   0.00000000   rchrg fchrg qchrg
    2   2   2   0   0   nproj
    1   1   extension_switch
       0                         5.1019905660000E+00  9.1943333630000E-01
     1  0.0000000000000E+00  0.0000000000000E+00  0.0000000000000E+00
     2  1.0000000000000E-02  5.7606332615000E-02  8.4581429352000E-03
     3  2.0000000000000E-02  1.1512130018000E-01  1.6874686727000E-02
     4  3.0000000000000E-02  1.7245371435000E-01  2.5208099873000E-02
     5  4.0000000000000E-02  2.2951273983000E-01  3.3416986128000E-02
     6  5.0000000000000E-02  2.8620806993000E-01  4.1460152060000E-02
     7  6.0000000000000E-02  3.4245010095000E-01  4.9296674538000E-02
     8  7.0000000000000E-02  3.9815010510000E-01  5.6885968101000E-02
     9  8.0000000000000E-02  4.5322040142000E-01  6.4187852202000E-02
    10  9.0000000000000E-02  5.0757452451000E-01  7.1162618290000E-02
    11  1.0000000000000E-01  5.6112739059000E-01  7.7771096713000E-02
    12  1.1000000000000E-01  6.1379546051000E-01  8.3974723402000E-02
    13  1.2000000000000E-01  6.6549689954000E-01  8.9735606331000E-02
    14  1.3000000000000E-01  7.1615173338000E-01  9.5016591710000E-02
    15  1.4000000000000E-01  7.6568200016000E-01  9.9781329885000E-02
    16  1.5000000000000E-01  8.1401189821000E-01  1.0399434095000E-01
    17  1.6000000000000E-01  8.6106792902000E-01  1.0762107998000E-01
    18  1.7000000000000E-01  9.0677903551000E-01  1.1062800195000E-01
    19  1.8000000000000E-01  9.5107673486000E-01  1.1298262618000E-01
    20  1.9000000000000E-01  9.9389524600000E-01  1.1465360044000E-01
    21  2.0000000000000E-01  1.0351716112000E+00  1.1561076450000E-01
    22  2.1000000000000E-01  1.0748458122000E+00  1.1582521326000E-01
    23  2.2000000000000E-01  1.1128608791000E+00  1.1526935932000E-01
    24  2.3000000000000E-01  1.1491629941000E+00  1.1391699486000E-01
    25  2.4000000000000E-01  1.1837015876000E+00  1.1174335297000E-01
    26  2.5000000000000E-01  1.2164294284000E+00  1.0872516849000E-01
    27  2.6000000000000E-01  1.2473027058000E+00  1.0484073742000E-01
    28  2.7000000000000E-01  1.2762811060000E+00  1.0006997650000E-01
    29  2.8000000000000E-01  1.3033278803000E+00  9.4394480981000E-02
    30  2.9000000000000E-01  1.3284099058000E+00  8.7797581860000E-02
    31  3.0000000000000E-01  1.3514977399000E+00  8.0264401979000E-02
    32  3.1000000000000E-01  1.3725656659000E+00  7.1781910872000E-02
    33  3.2000000000000E-01  1.3915917313000E+00  6.2338977953000E-02
    34  3.3000000000000E-01  1.4085577798000E+00  5.1926425706000E-02
    35  3.4000000000000E-01  1.4234494732000E+00  4.0537078858000E-02
    36  3.5000000000000E-01  1.4362563078000E+00  2.8165814270000E-02
    37  3.6000000000000E-01  1.4469716219000E+00  1.4809607019000E-02
    38  3.7000000000000E-01  1.4555925961000E+00  4.6757653329000E-04
    39  3.8000000000000E-01  1.4621202452000E+00 -1.4858972271000E-02
    40  3.9000000000000E-01  1.4665594034000E+00 -3.1166508161000E-02
    41  4.0000000000000E-01  1.4689187017000E+00 -4.8449235148000E-02
    42  4.1000000000000E-01  1.4692105368000E+00 -6.6699059048000E-02
    43  4.2000000000000E-01  1.4674510338000E+00 -8.5905555447000E-02
    44  4.3000000000000E-01  1.4636600008000E+00 -1.0605594147000E-01
    45  4.4000000000000E-01  1.4578608764000E+00 -1.2713505118000E-01
    46  4.5000000000000E-01  1.4500806699000E+00 -1.4912531484000E-01
    47  4.6000000000000E-01  1.4403498947000E+00 -1.7200674234000E-01
    48  4.7000000000000E-01  1.4287024956000E+00 -1.9575691167000E-01
    49  4.8000000000000E-01  1.4151757669000E+00 -2.2035096014000E-01
    50  4.9000000000000E-01  1.3998102654000E+00 -2.4576158237000E-01
    51  5.0000000000000E-01  1.3826497176000E+00 -2.7195903391000E-01
    52  5.1000000000000E-01  1.3637409241000E+00 -2.9891114037000E-01
    53  5.2000000000000E-01  1.3431336442000E+00 -3.2658330847000E-01
    54  5.3000000000000E-01  1.3208804910000E+00 -3.5493854979000E-01
    55  5.4000000000000E-01  1.2970368211000E+00 -3.8393750698000E-01
    56  5.5000000000000E-01  1.2716605881000E+00 -4.1353848593000E-01
    57  5.6000000000000E-01  1.2448122516000E+00 -4.4369749797000E-01
    58  5.7000000000000E-01  1.2165545983000E+00 -4.7436830784000E-01
    59  5.8000000000000E-01  1.1869526584000E+00 -5.0550248601000E-01
    60  5.9000000000000E-01  1.1560735006000E+00 -5.3704947840000E-01
    61  6.0000000000000E-01  1.1239861567000E+00 -5.6895666631000E-01
    62  6.1000000000000E-01  1.0907613999000E+00 -6.0116945912000E-01
    63  6.2000000000000E-01  1.0564716424000E+00 -6.3363137027000E-01
    64  6.3000000000000E-01  1.0211907731000E+00 -6.6628411176000E-01
    65  6.4000000000000E-01  9.8499394979000E-01 -6.9906771484000E-01
    66  6.5000000000000E-01  9.4795749699000E-01 -7.3192062091000E-01
    67  6.6000000000000E-01  9.1015873051000E-01 -7.6477980289000E-01
    68  6.7000000000000E-01  8.7167572732000E-01 -7.9758092332000E-01
    69  6.8000000000000E-01  8.3258722644000E-01 -8.3025844058000E-01
    70  6.9000000000000E-01  7.9297244505000E-01 -8.6274575805000E-01
    71  7.0000000000000E-01  7.5291090227000E-01 -8.9497537860000E-01
    72  7.1000000000000E-01  7.1248219837000E-01 -9.2687909592000E-01
    73  7.2000000000000E-01  6.7176590559000E-01 -9.5838812615000E-01
    74  7.3000000000000E-01  6.3084137325000E-01 -9.8943329608000E-01
    75  7.4000000000000E-01  5.8978755442000E-01 -1.0199452265000E+00
    76  7.5000000000000E-01  5.4868284472000E-01 -1.0498545133000E+00
    77  7.6000000000000E-01  5.0760489333000E-01 -1.0790919358000E+00
    78  7.7000000000000E-01  4.6663041574000E-01 -1.1075886744000E+00
    79  7.8000000000000E-01  4.2583506776000E-01 -1.1352764840000E+00
    80  7.9000000000000E-01  3.8529326329000E-01 -1.1620879172000E+00
    81  8.0000000000000E-01  3.4507801181000E-01 -1.1879565391000E+00
    82  8.1000000000000E-01  3.0526075887000E-01 -1.2128171444000E+00
    83  8.2000000000000E-01  2.6591123031000E-01 -1.2366059772000E+00
    84  8.3000000000000E-01  2.2709728042000E-01 -1.2592609522000E+00
    85  8.4000000000000E-01  1.8888474440000E-01 -1.2807218761000E+00
    86  8.5000000000000E-01  1.5133729565000E-01 -1.3009306692000E+00
    87  8.6000000000000E-01  1.1451630825000E-01 -1.3198315855000E+00
    88  8.7000000000000E-01  7.8480724918000E-02 -1.3373714310000E+00
    89  8.8000000000000E-01  4.3286930986000E-02 -1.3534997782000E+00
    90  8.9000000000000E-01  8.9886346902000E-03 -1.3681691775000E+00
    91  9.0000000000000E-01 -2.4363245771000E-02 -1.3813353624000E+00
    92  9.1000000000000E-01 -5.6720688057000E-02 -1.3929574490000E+00
    93  9.2000000000000E-01 -8.8038663976000E-02 -1.4029981278000E+00
    94  9.3000000000000E-01 -1.1827522989000E-01 -1.4114238475000E+00
    95  9.4000000000000E-01 -1.4739159511000E-01 -1.4182049699000E+00
    96  9.5000000000000E-01 -1.7535217869000E-01 -1.4233159078000E+00
    97  9.6000000000000E-01 -2.0212480618000E-01 -1.4267354583000E+00
    98  9.7000000000000E-01 -2.2768061766000E-01 -1.4284467437000E+00
    99  9.8000000000000E-01 -2.5199416423000E-01 -1.4284374031000E+00
   100  9.9000000000000E-01 -2.7504344476000E-01 -1.4266997032000E+00
   101  1.0000000000000E+00 -2.9680993279000E-01 -1.4232306325000E+00
   102  1.0100000000000E+00 -3.1727859289000E-01 -1.4180319792000E+00
   103  1.0200000000000E+00 -3.3643777416000E-01 -1.4111102144000E+00
   104  1.0300000000000E+00 -3.5427957168000E-01 -1.4024770972000E+00
   105  1.0400000000000E+00 -3.7079945519000E-01 -1.3921491558000E+00
   106  1.0500000000000E+00 -3.8599635523000E-01 -1.3801478569000E+00
   107  1.0600000000000E+00 -3.9987262805000E-01 -1.3664995882000E+00
   108  1.0700000000000E+00 -4.1243391841000E-01 -1.3512354671000E+00
   109  1.0800000000000E+00 -4.2368939448000E-01 -1.3343917607000E+00
   110  1.0900000000000E+00 -4.3365145403000E-01 -1.3160094394000E+00
   111  1.1000000000000E+00 -4.4233564799000E-01 -1.2961340690000E+00
   112  1.1100000000000E+00 -4.4976059224000E-01 -1.2748156789000E+00
   113  1.1200000000000E+00 -4.5594795651000E-01 -1.2521087609000E+00
   114  1.1300000000000E+00 -4.6092241761000E-01 -1.2280722108000E+00
   115  1.1400000000000E+00 -4.6471135780000E-01 -1.2027688116000E+00
   116  1.1500000000000E+00 -4.6734480760000E-01 -1.1762651358000E+00
   117  1.1600000000000E+00 -4.6885540233000E-01 -1.1486314734000E+00
   118  1.1700000000000E+00 -4.6927817063000E-01 -1.1199414503000E+00
   119  1.1800000000000E+00 -4.6865033711000E-01 -1.0902716672000E+00
   120  1.1900000000000E+00 -4.6701129718000E-01 -1.0597016551000E+00
   121  1.2000000000000E+00 -4.6440230804000E-01 -1.0283132760000E+00
   122  1.2100000000000E+00 -4.6086632875000E-01 -9.9619041569000E-01
   123  1.2200000000000E+00 -4.5644801949000E-01 -9.6341897880000E-01
   124  1.2300000000000E+00 -4.5119338236000E-01 -9.3008617791000E-01
   125  1.2400000000000E+00 -4.4514940748000E-01 -8.9627981062000E-01
   126  1.2500000000000E+00 -4.3836432654000E-01 -8.6208875694000E-01
   127  1.2600000000000E+00 -4.3088719962000E-01 -8.2760214674000E-01
   128  1.2700000000000E+00 -4.2276719837000E-01 -7.9290786700000E-01
   129  1.2800000000000E+00 -4.1405435075000E-01 -7.5809406472000E-01
   130  1.2900000000000E+00 -4.0479882844000E-01 -7.2324768490000E-01
   131  1.3000000000000E+00 -3.9505006790000E-01 -6.8845259192000E-01
   132  1.3100000000000E+00 -3.8485810689000E-01 -6.5379233937000E-01
   133  1.3200000000000E+00 -3.7427201453000E-01 -6.1934687520000E-01
   134  1.3300000000000E+00 -3.6333959099000E-01 -5.8519182610000E-01
   135  1.3400000000000E+00 -3.5210913870000E-01 -5.5140227071000E-01
   136  1.3500000000000E+00 -3.4062614812000E-01 -5.1804562494000E-01
   137  1.3600000000000E+00 -3.2893520804000E-01 -4.8518565614000E-01
   138  1.3700000000000E+00 -3.1708055360000E-01 -4.5288371706000E-01
   139  1.3800000000000E+00 -3.0510206674000E-01 -4.2118995394000E-01
   140  1.3900000000000E+00 -2.9303990541000E-01 -3.9015338601000E-01
   141  1.4000000000000E+00 -2.8093071674000E-01 -3.5981352949000E-01
   142  1.4100000000000E+00 -2.6880816046000E-01 -3.3020176409000E-01
   143  1.4200000000000E+00 -2.5670550512000E-01 -3.0134599198000E-01
   144  1.4300000000000E+00 -2.4465095995000E-01 -2.7326538258000E-01
   145  1.4400000000000E+00 -2.3267364914000E-01 -2.4598004662000E-01
   146  1.4500000000000E+00 -2.2080004246000E-01 -2.1950841708000E-01
   147  1.4600000000000E+00 -2.0905551262000E-01 -1.9386801582000E-01
   148  1.4700000000000E+00 -1.9746486919000E-01 -1.6907576516000E-01
   149  1.4800000000000E+00 -1.8604981725000E-01 -1.4514630884000E-01
   150  1.4900000000000E+00 -1.7483301235000E-01 -1.2209438874000E-01
   151  1.5000000000000E+00 -1.6383316843000E-01 -9.9931665395000E-02
   152  1.5100000000000E+00 -1.5306965848000E-01 -7.8669625026000E-02
   153  1.5200000000000E+00 -1.4255914235000E-01 -5.8317251611000E-02
   154  1.5300000000000E+00 -1.3231741525000E-01 -3.8882166217000E-02
   155  1.5400000000000E+00 -1.2235903165000E-01 -2.0370459714000E-02
   156  1.5500000000000E+00 -1.1269632183000E-01 -2.7856100874000E-03
   157  1.5600000000000E+00 -1.0334165199000E-01  1.3869407398000E-02
   158  1.5700000000000E+00 -9.4304067279000E-02  2.9595383149000E-02
   159  1.5800000000000E+00 -8.5593662492000E-02  4.4392665867000E-02
   160  1.5900000000000E+00 -7.7216524953000E-02  5.8266195437000E-02
   161  1.6000000000000E+00 -6.9180094178000E-02  7.1220148222000E-02
   162  1.6100000000000E+00 -6.1488067201000E-02  8.3263153324000E-02
   163  1.6200000000000E+00 -5.4145080415000E-02  9.4403470103000E-02
   164  1.6300000000000E+00 -4.7152657729000E-02  1.0465322578000E-01
   165  1.6400000000000E+00 -4.0512785282000E-02  1.1402466043000E-01
   166  1.6500000000000E+00 -3.4224880464000E-02  1.2253332877000E-01
   167  1.6600000000000E+00 -2.8288507855000E-02  1.3019521734000E-01
   168  1.6700000000000E+00 -2.2701072504000E-02  1.3702915711000E-01
   169  1.6800000000000E+00 -1.7459959446000E-02  1.4305457635000E-01
   170  1.6900000000000E+00 -1.2560682595000E-02  1.4829336766000E-01
   171  1.7000000000000E+00 -7.9986885554000E-03  1.5276806339000E-01
   172  1.7100000000000E+00 -3.7677578867000E-03  1.5650331074000E-01
   173  1.7200000000000E+00  1.3836826538000E-04  1.5952439089000E-01
   174  1.7300000000000E+00  3.7274476038000E-03  1.6185830753000E-01
   175  1.7400000000000E+00  7.0072284882000E-03  1.6353274276000E-01
   176  1.7500000000000E+00  9.9867728009000E-03  1.6457656244000E-01
   177  1.7600000000000E+00  1.2675125973000E-02  1.6501952720000E-01
   178  1.7700000000000E+00  1.5082382194000E-02  1.6489177770000E-01
   179  1.7800000000000E+00  1.7218719013000E-02  1.6422486838000E-01
   180  1.7900000000000E+00  1.9094962583000E-02  1.6304960298000E-01
   181  1.8000000000000E+00  2.0722271087000E-02  1.6139891467000E-01
   182  1.8100000000000E+00  2.2111935241000E-02  1.5930389177000E-01
   183  1.8200000000000E+00  2.3275831607000E-02  1.5679804310000E-01
   184  1.8300000000000E+00  2.4225587710000E-02  1.5391268904000E-01
   185  1.8400000000000E+00  2.4973443811000E-02  1.5068103988000E-01
   186  1.8500000000000E+00  2.5531314388000E-02  1.4713459072000E-01
   187  1.8600000000000E+00  2.5911406240000E-02  1.4330533587000E-01
   188  1.8700000000000E+00  2.6125918376000E-02  1.3922498517000E-01
   189  1.8800000000000E+00  2.6186612943000E-02  1.3492337271000E-01
   190  1.8900000000000E+00  2.6105995884000E-02  1.3043250150000E-01
   191  1.9000000000000E+00  2.5895055427000E-02  1.2577934838000E-01
   192  1.9100000000000E+00  2.5566433342000E-02  1.2099569278000E-01
   193  1.9200000000000E+00  2.5130468340000E-02  1.1610624866000E-01
   194  1.9300000000000E+00  2.4599037381000E-02  1.1114001671000E-01
   195  1.9400000000000E+00  2.3982487569000E-02  1.0612143970000E-01
   196  1.9500000000000E+00  2.3291314752000E-02  1.0107516762000E-01
   197  1.9600000000000E+00  2.2536040241000E-02  9.6025788923000E-02
   198  1.9700000000000E+00  2.1725415543000E-02  9.0992803329000E-02
   199  1.9800000000000E+00  2.0870210370000E-02  8.6001093545000E-02
   200  1.9900000000000E+00  1.9977735205000E-02  8.1065992794000E-02
   201  2.0000000000000E+00  1.9057444035000E-02  7.6208460575000E-02
   202  2.0100000000000E+00  1.8116750736000E-02  7.1443886629000E-02
   203  2.0200000000000E+00  1.7162937609000E-02  6.6787151128000E-02
   204  2.0300000000000E+00  1.6203776340000E-02  6.2254304568000E-02
   205  2.0400000000000E+00  1.5244442913000E-02  5.7854491390000E-02
   206  2.0500000000000E+00  1.4292298251000E-02  5.3602368609000E-02
   207  2.0600000000000E+00  1.3351651256000E-02  4.9504663196000E-02
   208  2.0700000000000E+00  1.2427798945000E-02  4.5570471717000E-02
   209  2.0800000000000E+00  1.1525569477000E-02  4.1807611981000E-02
   210  2.0900000000000E+00  1.0647891382000E-02  3.8219033603000E-02
   211  2.1000000000000E+00  9.7996409848000E-03  3.4812360228000E-02
   212  2.1100000000000E+00  8.9825668230000E-03  3.1587496371000E-02
   213  2.1200000000000E+00  8.1996260953000E-03  2.8547126252000E-02
   214  2.1300000000000E+00  7.4532185527000E-03  2.5692525254000E-02
   215  2.1400000000000E+00  6.7441384259000E-03  2.3021092800000E-02
   216  2.1500000000000E+00  6.0747299677000E-03  2.0533649313000E-02
   217  2.1600000000000E+00  5.4449770176000E-03  1.8225650821000E-02
   218  2.1700000000000E+00  4.8555035843000E-03  1.6093821424000E-02
   219  2.1800000000000E+00  4.3069260823000E-03  1.4134784465000E-02
   220  2.1900000000000E+00  3.7983225079000E-03  1.2341894946000E-02
   221  2.2000000000000E+00  3.3298121065000E-03  1.0710402703000E-02
   222  2.2100000000000E+00  2.9003633728000E-03  9.2334040450000E-03
   223  2.2200000000000E+00  2.5087673853000E-03  7.9035490513000E-03
   224  2.2300000000000E+00  2.1543369911000E-03  6.7141173137000E-03
   225  2.2400000000000E+00  1.8351500694000E-03  5.6567302759000E-03
   226  2.2500000000000E+00  1.5497661976000E-03  4.7233226142000E-03
   227  2.2600000000000E+00  1.2965614781000E-03  3.9056724492000E-03
   228  2.2700000000000E+00  1.0735136981000E-03  3.1954315177000E-03
   229  2.2800000000000E+00  8.7876161313000E-04  2.5836030298000E-03
   230  2.2900000000000E+00  7.1030343601000E-04  2.0620925815000E-03
   231  2.3000000000000E+00  5.6608342816000E-04  1.6227704489000E-03
   232  2.3100000000000E+00  4.4390153814000E-04  1.2560417001000E-03
   233  2.3200000000000E+00  3.4186232375000E-04  9.5528202738000E-04
   234  2.3300000000000E+00  2.5785459520000E-04  7.1235974001000E-04
   235  2.3400000000000E+00  1.8967675035000E-04  5.1869804161000E-04
   236  2.3500000000000E+00  1.3568404844000E-04  3.6890918117000E-04
   237  2.3600000000000E+00  9.3775731622000E-05  2.5529296368000E-04
   238  2.3700000000000E+00  6.2080539539000E-05  1.7127758575000E-04
   239  2.3800000000000E+00  3.9229837816000E-05  1.1271122433000E-04
   240  2.3900000000000E+00  2.3251346456000E-05  7.2745568811000E-05
   241  2.4000000000000E+00  1.2794663979000E-05  4.7280759004000E-05
   242  2.4100000000000E+00  6.7906460240000E-06  3.3477738012000E-05
   243  2.4200000000000E+00  3.4792308463000E-06  2.6348607620000E-05
   244  2.4300000000000E+00  2.1323623946000E-06  2.3467080784000E-05
   245  2.4400000000000E+00  2.0414932773000E-06  2.2445419115000E-05
   246  2.4500000000000E+00  1.3038089582000E-06  1.5757774188000E-05
   247  2.4600000000000E+00  5.5914448891000E-07  7.6688121005000E-06
   248  2.4700000000000E+00  3.7010748104000E-08  5.6571131861000E-07
   249  2.4800000000000E+00 -1.3010653749000E-07 -1.3889712321000E-06
   250  2.4900000000000E+00 -1.1341020081000E-07 -1.2107270656000E-06
   251  2.5000000000000E+00 -7.2979482696000E-09 -7.7910306393000E-08
   252  2.5100000000000E+00  0.0000000000000E+00  0.0000000000000E+00
   253  2.5200000000000E+00  0.0000000000000E+00  0.0000000000000E+00
   254  2.5300000000000E+00  0.0000000000000E+00  0.0000000000000E+00
   255  2.5400000000000E+00  0.0000000000000E+00  0.0000000000000E+00
   256  2.5500000000000E+00  0.0000000000000E+00  0.0000000000000E+00
   257  2.5600000000000E+00  0.0000000000000E+00  0.0000000000000E+00
   258  2.5700000000000E+00  0.0000000000000E+00  0.0000000000000E+00
   259  2.5800000000000E+00  0.0000000000000E+00  0.0000000000000E+00
   260  2.5900000000000E+00  0.0000000000000E+00  0.0000000000000E+00
   261  2.6000000000000E+00  0.0000000000000E+00  0.0000000000000E+00
   262  2.6100000000000E+00  0.0000000000000E+00  0.0000000000000E+00
   263  2.6200000000000E+00  0.0000000000000E+00  0.0000000000000E+00
   264  2.6300000000000E+00  0.0000000000000E+00  0.0000000000000E+00
   265  2.6400000000000E+00  0.0000000000000E+00  0.0000000000000E+00
   266  2.6500000000000E+00  0.0000000000000E+00  0.0000000000000E+00
   267  2.6600000000000E+00  0.0000000000000E+00  0.0000000000000E+00
   268  2.6700000000000E+00  0.0000000000000E+00  0.0000000000000E+00
   269  2.6800000000000E+00  0.0000000000000E+00  0.0000000000000E+00
   270  2.6900000000000E+00  0.0000000000000E+00  0.0000000000000E+00
   271  2.7000000000000E+00  0.0000000000000E+00  0.0000000000000E+00
   272  2.7100000000000E+00  0.0000000000000E+00  0.0000000000000E+00
   273  2.7200000000000E+00  0.0000000000000E+00  0.0000000000000E+00
   274  2.7300000000000E+00  0.0000000000000E+00  0.0000000000000E+00
   275  2.7400000000000E+00  0.0000000000000E+00  0.0000000000000E+00
   276  2.7500000000000E+00  0.0000000000000E+00  0.0000000000000E+00
   277  2.7600000000000E+00  0.0000000000000E+00  0.0000000000000E+00
   278  2.7700000000000E+00  0.0000000000000E+00  0.0000000000000E+00
   279  2.7800000000000E+00  0.0000000000000E+00  0.0000000000000E+00
   280  2.7900000000000E+00  0.0000000000000E+00  0.0000000000000E+00
   281  2.8000000000000E+00  0.0000000000000E+00  0.0000000000000E+00
   282  2.8100000000000E+00  0.0000000000000E+00  0.0000000000000E+00
   283  2.8200000000000E+00  0.0000000000000E+00  0.0000000000000E+00
   284  2.8300000000000E+00  0.0000000000000E+00  0.0000000000000E+00
   285  2.8400000000000E+00  0.0000000000000E+00  0.0000000000000E+00
   286  2.8500000000000E+00  0.0000000000000E+00  0.0000000000000E+00
   287  2.8600000000000E+00  0.0000000000000E+00  0.0000000000000E+00
   288  2.8700000000000E+00  0.0000000000000E+00  0.0000000000000E+00
   289  2.8800000000000E+00  0.0000000000000E+00  0.0000000000000E+00
   290  2.8900000000000E+00  0.0000000000000E+00  0.0000000000000E+00
   291  2.9000000000000E+00  0.0000000000000E+00  0.0000000000000E+00
   292  2.9100000000000E+00  0.0000000000000E+00  0.0000000000000E+00
   293  2.9200000000000E+00  0.0000000000000E+00  0.0000000000000E+00
   294  2.9300000000000E+00  0.0000000000000E+00  0.0000000000000E+00
   295  2.9400000000000E+00  0.0000000000000E+00  0.0000000000000E+00
   296  2.9500000000000E+00  0.0000000000000E+00  0.0000000000000E+00
   297  2.9600000000000E+00  0.0000000000000E+00  0.0000000000000E+00
   298  2.9700000000000E+00  0.0000000000000E+00  0.0000000000000E+00
   299  2.9800000000000E+00  0.0000000000000E+00  0.0000000000000E+00
   300  2.9900000000000E+00  0.0000000000000E+00  0.0000000000000E+00
   301  3.0000000000000E+00  0.0000000000000E+00  0.0000000000000E+00
   302  3.0100000000000E+00  0.0000000000000E+00  0.0000000000000E+00
   303  3.0200000000000E+00  0.0000000000000E+00  0.0000000000000E+00
   304  3.0300000000000E+00  0.0000000000000E+00  0.0000000000000E+00
   305  3.0400000000000E+00  0.0000000000000E+00  0.0000000000000E+00
   306  3.0500000000000E+00  0.0000000000000E+00  0.0000000000000E+00
   307  3.0600000000000E+00  0.0000000000000E+00  0.0000000000000E+00
   308  3.0700000000000E+00  0.0000000000000E+00  0.0000000000000E+00
   309  3.0800000000000E+00  0.0000000000000E+00  0.0000000000000E+00
   310  3.0900000000000E+00  0.0000000000000E+00  0.0000000000000E+00
   311  3.1000000000000E+00  0.0000000000000E+00  0.0000000000000E+00
   312  3.1100000000000E+00  0.0000000000000E+00  0.0000000000000E+00
   313  3.1200000000000E+00  0.0000000000000E+00  0.0000000000000E+00
   314  3.1300000000000E+00  0.0000000000000E+00  0.0000000000000E+00
   315  3.1400000000000E+00  0.0000000000000E+00  0.0000000000000E+00
   316  3.1500000000000E+00  0.0000000000000E+00  0.0000000000000E+00
   317  3.1600000000000E+00  0.0000000000000E+00  0.0000000000000E+00
   318  3.1700000000000E+00  0.0000000000000E+00  0.0000000000000E+00
   319  3.1800000000000E+00  0.0000000000000E+00  0.0000000000000E+00
   320  3.1900000000000E+00  0.0000000000000E+00  0.0000000000000E+00
   321  3.2000000000000E+00  0.0000000000000E+00  0.0000000000000E+00
   322  3.2100000000000E+00  0.0000000000000E+00  0.0000000000000E+00
   323  3.2200000000000E+00  0.0000000000000E+00  0.0000000000000E+00
   324  3.2300000000000E+00  0.0000000000000E+00  0.0000000000000E+00
   325  3.2400000000000E+00  0.0000000000000E+00  0.0000000000000E+00
   326  3.2500000000000E+00  0.0000000000000E+00  0.0000000000000E+00
   327  3.2600000000000E+00  0.0000000000000E+00  0.0000000000000E+00
   328  3.2700000000000E+00  0.0000000000000E+00  0.0000000000000E+00
   329  3.2800000000000E+00  0.0000000000000E+00  0.0000000000000E+00
   330  3.2900000000000E+00  0.0000000000000E+00  0.0000000000000E+00
   331  3.3000000000000E+00  0.0000000000000E+00  0.0000000000000E+00
   332  3.3100000000000E+00  0.0000000000000E+00  0.0000000000000E+00
   333  3.3200000000000E+00  0.0000000000000E+00  0.0000000000000E+00
   334  3.3300000000000E+00  0.0000000000000E+00  0.0000000000000E+00
   335  3.3400000000000E+00  0.0000000000000E+00  0.0000000000000E+00
   336  3.3500000000000E+00  0.0000000000000E+00  0.0000000000000E+00
   337  3.3600000000000E+00  0.0000000000000E+00  0.0000000000000E+00
   338  3.3700000000000E+00  0.0000000000000E+00  0.0000000000000E+00
   339  3.3800000000000E+00  0.0000000000000E+00  0.0000000000000E+00
   340  3.3900000000000E+00  0.0000000000000E+00  0.0000000000000E+00
   341  3.4000000000000E+00  0.0000000000000E+00  0.0000000000000E+00
   342  3.4100000000000E+00  0.0000000000000E+00  0.0000000000000E+00
   343  3.4200000000000E+00  0.0000000000000E+00  0.0000000000000E+00
   344  3.4300000000000E+00  0.0000000000000E+00  0.0000000000000E+00
   345  3.4400000000000E+00  0.0000000000000E+00  0.0000000000000E+00
   346  3.4500000000000E+00  0.0000000000000E+00  0.0000000000000E+00
   347  3.4600000000000E+00  0.0000000000000E+00  0.0000000000000E+00
   348  3.4700000000000E+00  0.0000000000000E+00  0.0000000000000E+00
   349  3.4800000000000E+00  0.0000000000000E+00  0.0000000000000E+00
   350  3.4900000000000E+00  0.0000000000000E+00  0.0000000000000E+00
   351  3.5000000000000E+00  0.0000000000000E+00  0.0000000000000E+00
   352  3.5100000000000E+00  0.0000000000000E+00  0.0000000000000E+00
   353  3.5200000000000E+00  0.0000000000000E+00  0.0000000000000E+00
   354  3.5300000000000E+00  0.0000000000000E+00  0.0000000000000E+00
   355  3.5400000000000E+00  0.0000000000000E+00  0.0000000000000E+00
   356  3.5500000000000E+00  0.0000000000000E+00  0.0000000000000E+00
   357  3.5600000000000E+00  0.0000000000000E+00  0.0000000000000E+00
   358  3.5700000000000E+00  0.0000000000000E+00  0.0000000000000E+00
   359  3.5800000000000E+00  0.0000000000000E+00  0.0000000000000E+00
   360  3.5900000000000E+00  0.0000000000000E+00  0.0000000000000E+00
   361  3.6000000000000E+00  0.0000000000000E+00  0.0000000000000E+00
   362  3.6100000000000E+00  0.0000000000000E+00  0.0000000000000E+00
   363  3.6200000000000E+00  0.0000000000000E+00  0.0000000000000E+00
   364  3.6300000000000E+00  0.0000000000000E+00  0.0000000000000E+00
   365  3.6400000000000E+00  0.0000000000000E+00  0.0000000000000E+00
   366  3.6500000000000E+00  0.0000000000000E+00  0.0000000000000E+00
   367  3.6600000000000E+00  0.0000000000000E+00  0.0000000000000E+00
   368  3.6700000000000E+00  0.0000000000000E+00  0.0000000000000E+00
   369  3.6800000000000E+00  0.0000000000000E+00  0.0000000000000E+00
   370  3.6900000000000E+00  0.0000000000000E+00  0.0000000000000E+00
   371  3.7000000000000E+00  0.0000000000000E+00  0.0000000000000E+00
   372  3.7100000000000E+00  0.0000000000000E+00  0.0000000000000E+00
   373  3.7200000000000E+00  0.0000000000000E+00  0.0000000000000E+00
   374  3.7300000000000E+00  0.0000000000000E+00  0.0000000000000E+00
   375  3.7400000000000E+00  0.0000000000000E+00  0.0000000000000E+00
   376  3.7500000000000E+00  0.0000000000000E+00  0.0000000000000E+00
   377  3.7600000000000E+00  0.0000000000000E+00  0.0000000000000E+00
   378  3.7700000000000E+00  0.0000000000000E+00  0.0000000000000E+00
   379  3.7800000000000E+00  0.0000000000000E+00  0.0000000000000E+00
   380  3.7900000000000E+00  0.0000000000000E+00  0.0000000000000E+00
   381  3.8000000000000E+00  0.0000000000000E+00  0.0000000000000E+00
   382  3.8100000000000E+00  0.0000000000000E+00  0.0000000000000E+00
   383  3.8200000000000E+00  0.0000000000000E+00  0.0000000000000E+00
   384  3.8300000000000E+00  0.0000000000000E+00  0.0000000000000E+00
   385  3.8400000000000E+00  0.0000000000000E+00  0.0000000000000E+00
   386  3.8500000000000E+00  0.0000000000000E+00  0.0000000000000E+00
   387  3.8600000000000E+00  0.0000000000000E+00  0.0000000000000E+00
   388  3.8700000000000E+00  0.0000000000000E+00  0.0000000000000E+00
   389  3.8800000000000E+00  0.0000000000000E+00  0.0000000000000E+00
   390  3.8900000000000E+00  0.0000000000000E+00  0.0000000000000E+00
   391  3.9000000000000E+00  0.0000000000000E+00  0.0000000000000E+00
   392  3.9100000000000E+00  0.0000000000000E+00  0.0000000000000E+00
   393  3.9200000000000E+00  0.0000000000000E+00  0.0000000000000E+00
   394  3.9300000000000E+00  0.0000000000000E+00  0.0000000000000E+00
   395  3.9400000000000E+00  0.0000000000000E+00  0.0000000000000E+00
   396  3.9500000000000E+00  0.0000000000000E+00  0.0000000000000E+00
   397  3.9600000000000E+00  0.0000000000000E+00  0.0000000000000E+00
   398  3.9700000000000E+00  0.0000000000000E+00  0.0000000000000E+00
   399  3.9800000000000E+00  0.0000000000000E+00  0.0000000000000E+00
   400  3.9900000000000E+00  0.0000000000000E+00  0.0000000000000E+00
   401  4.0000000000000E+00  0.0000000000000E+00  0.0000000000000E+00
   402  4.0100000000000E+00  0.0000000000000E+00  0.0000000000000E+00
   403  4.0200000000000E+00  0.0000000000000E+00  0.0000000000000E+00
   404  4.0300000000000E+00  0.0000000000000E+00  0.0000000000000E+00
   405  4.0400000000000E+00  0.0000000000000E+00  0.0000000000000E+00
   406  4.0500000000000E+00  0.0000000000000E+00  0.0000000000000E+00
   407  4.0600000000000E+00  0.0000000000000E+00  0.0000000000000E+00
   408  4.0700000000000E+00  0.0000000000000E+00  0.0000000000000E+00
   409  4.0800000000000E+00  0.0000000000000E+00  0.0000000000000E+00
   410  4.0900000000000E+00  0.0000000000000E+00  0.0000000000000E+00
   411  4.1000000000000E+00  0.0000000000000E+00  0.0000000000000E+00
   412  4.1100000000000E+00  0.0000000000000E+00  0.0000000000000E+00
   413  4.1200000000000E+00  0.0000000000000E+00  0.0000000000000E+00
   414  4.1300000000000E+00  0.0000000000000E+00  0.0000000000000E+00
   415  4.1400000000000E+00  0.0000000000000E+00  0.0000000000000E+00
   416  4.1500000000000E+00  0.0000000000000E+00  0.0000000000000E+00
   417  4.1600000000000E+00  0.0000000000000E+00  0.0000000000000E+00
   418  4.1700000000000E+00  0.0000000000000E+00  0.0000000000000E+00
   419  4.1800000000000E+00  0.0000000000000E+00  0.0000000000000E+00
   420  4.1900000000000E+00  0.0000000000000E+00  0.0000000000000E+00
   421  4.2000000000000E+00  0.0000000000000E+00  0.0000000000000E+00
   422  4.2100000000000E+00  0.0000000000000E+00  0.0000000000000E+00
   423  4.2200000000000E+00  0.0000000000000E+00  0.0000000000000E+00