Ag   ONCVPSP-2.1.1   r_core=    2.66052 2.56699 2.47676
    47.0000   19.0000   150105   zatom,zion,pspd
    8   11   2   4   600   0   pspcod,pspxc,lmax,lloc,mmax,r2well
    5.99000000   0.00000000   0.00000000   rchrg fchrg qchrg
    2   2   2   0   0   nproj
    1   1   extension_switch
       0                         3.6125410505000E+00  4.0169654091000E-01
     1  0.0000000000000E+00  0.0000000000000E+00  0.0000000000000E+00
     2  1.0000000000000E-02  5.9640420065000E-02  3.1570732564000E-03
     3  2.0000000000000E-02  1.1917633090000E-01  6.2756074736000E-03
     4  3.0000000000000E-02  1.7850344038000E-01  9.3171326500000E-03
     5  4.0000000000000E-02  2.3751789012000E-01  1.2243316886000E-02
     6  5.0000000000000E-02  2.9611647106000E-01  1.5016035500000E-02
     7  6.0000000000000E-02  3.5419683766000E-01  1.7597440225000E-02
     8  7.0000000000000E-02  4.1165771998000E-01  1.9950028496000E-02
     9  8.0000000000000E-02  4.6839913345000E-01  2.2036712858000E-02
    10  9.0000000000000E-02  5.2432258559000E-01  2.3820890504000E-02
    11  1.0000000000000E-01  5.7933127935000E-01  2.5266512944000E-02
    12  1.1000000000000E-01  6.3333031262000E-01  2.6338155813000E-02
    13  1.2000000000000E-01  6.8622687333000E-01  2.7001088814000E-02
    14  1.3000000000000E-01  7.3793042982000E-01  2.7221345782000E-02
    15  1.4000000000000E-01  7.8835291605000E-01  2.6965794829000E-02
    16  1.5000000000000E-01  8.3740891110000E-01  2.6202208585000E-02
    17  1.6000000000000E-01  8.8501581265000E-01  2.4899334430000E-02
    18  1.7000000000000E-01  9.3109400417000E-01  2.3026964745000E-02
    19  1.8000000000000E-01  9.7556701513000E-01  2.0556007031000E-02
    20  1.9000000000000E-01  1.0183616742000E+00  1.7458553895000E-02
    21  2.0000000000000E-01  1.0594082548000E+00  1.3707952822000E-02
    22  2.1000000000000E-01  1.0986406130000E+00  9.2788755175000E-03
    23  2.2000000000000E-01  1.1359963174000E+00  4.1473869782000E-03
    24  2.3000000000000E-01  1.1714167700000E+00 -1.7089862476000E-03
    25  2.4000000000000E-01  1.2048473193000E+00 -8.3111881742000E-03
    26  2.5000000000000E-01  1.2362373637000E+00 -1.5678566628000E-02
    27  2.6000000000000E-01  1.2655404463000E+00 -2.3828807311000E-02
    28  2.7000000000000E-01  1.2927143396000E+00 -3.2777869211000E-02
    29  2.8000000000000E-01  1.3177211223000E+00 -4.2539920854000E-02
    30  2.9000000000000E-01  1.3405272442000E+00 -5.3127278733000E-02
    31  3.0000000000000E-01  1.3611035833000E+00 -6.4550347028000E-02
    32  3.1000000000000E-01  1.3794254912000E+00 -7.6817559613000E-02
    33  3.2000000000000E-01  1.3954728306000E+00 -8.9935323390000E-02
    34  3.3000000000000E-01  1.4092300012000E+00 -1.0390796483000E-01
    35  3.4000000000000E-01  1.4206859547000E+00 -1.1873767983000E-01
    36  3.5000000000000E-01  1.4298342031000E+00 -1.3442448308000E-01
    37  3.6000000000000E-01  1.4366728124000E+00 -1.5096616603000E-01
    38  3.7000000000000E-01  1.4412043903000E+00 -1.6835825194000E-01
    39  3.8000000000000E-01  1.4434360613000E+00 -1.8659395964000E-01
    40  3.9000000000000E-01  1.4433794323000E+00 -2.0566416877000E-01
    41  4.0000000000000E-01  1.4410505495000E+00 -2.2555738943000E-01
    42  4.1000000000000E-01  1.4364698448000E+00 -2.4625973552000E-01
    43  4.2000000000000E-01  1.4296620719000E+00 -2.6775490451000E-01
    44  4.3000000000000E-01  1.4206562348000E+00 -2.9002416067000E-01
    45  4.4000000000000E-01  1.4094855054000E+00 -3.1304632387000E-01
    46  4.5000000000000E-01  1.3961871332000E+00 -3.3679776373000E-01
    47  4.6000000000000E-01  1.3808023468000E+00 -3.6125239985000E-01
    48  4.7000000000000E-01  1.3633762438000E+00 -3.8638170638000E-01
    49  4.8000000000000E-01  1.3439576763000E+00 -4.1215472456000E-01
    50  4.9000000000000E-01  1.3225991257000E+00 -4.3853808087000E-01
    51  5.0000000000000E-01  1.2993565746000E+00 -4.6549601171000E-01
    52  5.1000000000000E-01  1.2742893651000E+00 -4.9299039386000E-01
    53  5.2000000000000E-01  1.2474600469000E+00 -5.2098078323000E-01
    54  5.3000000000000E-01  1.2189342413000E+00 -5.4942445979000E-01
    55  5.4000000000000E-01  1.1887804643000E+00 -5.7827647984000E-01
    56  5.5000000000000E-01  1.1570699702000E+00 -6.0748973623000E-01
    57  5.6000000000000E-01  1.1238765912000E+00 -6.3701502268000E-01
    58  5.7000000000000E-01  1.0892765356000E+00 -6.6680111354000E-01
    59  5.8000000000000E-01  1.0533482462000E+00 -6.9679483731000E-01
    60  5.9000000000000E-01  1.0161721765000E+00 -7.2694117582000E-01
    61  6.0000000000000E-01  9.7783063198000E-01 -7.5718335338000E-01
    62  6.1000000000000E-01  9.3840757946000E-01 -7.8746294041000E-01
    63  6.2000000000000E-01  8.9798841124000E-01 -8.1771998009000E-01
    64  6.3000000000000E-01  8.5665982972000E-01 -8.4789307776000E-01
    65  6.4000000000000E-01  8.1450956294000E-01 -8.7791956027000E-01
    66  6.5000000000000E-01  7.7162620329000E-01 -9.0773559564000E-01
    67  6.6000000000000E-01  7.2809904149000E-01 -9.3727631629000E-01
    68  6.7000000000000E-01  6.8401781401000E-01 -9.6647598953000E-01
    69  6.8000000000000E-01  6.3947249489000E-01 -9.9526817674000E-01
    70  6.9000000000000E-01  5.9455314188000E-01 -1.0235858691000E+00
    71  7.0000000000000E-01  5.4934969099000E-01 -1.0513616543000E+00
    72  7.1000000000000E-01  5.0395174195000E-01 -1.0785278959000E+00
    73  7.2000000000000E-01  4.5844831929000E-01 -1.1050169373000E+00
    74  7.3000000000000E-01  4.1292774723000E-01 -1.1307612413000E+00
    75  7.4000000000000E-01  3.6747743291000E-01 -1.1556935899000E+00
    76  7.5000000000000E-01  3.2218367734000E-01 -1.1797472747000E+00
    77  7.6000000000000E-01  2.7713149008000E-01 -1.2028562894000E+00
    78  7.7000000000000E-01  2.3240442630000E-01 -1.2249555123000E+00
    79  7.8000000000000E-01  1.8808436464000E-01 -1.2459809389000E+00
    80  7.9000000000000E-01  1.4425135833000E-01 -1.2658698667000E+00
    81  8.0000000000000E-01  1.0098348495000E-01 -1.2845610827000E+00
    82  8.1000000000000E-01  5.8356673680000E-02 -1.3019950754000E+00
    83  8.2000000000000E-01  1.6444550133000E-02 -1.3181142363000E+00
    84  8.3000000000000E-01 -2.4681712608000E-02 -1.3328630621000E+00
    85  8.4000000000000E-01 -6.4953536273000E-02 -1.3461883545000E+00
    86  8.5000000000000E-01 -1.0430507277000E-01 -1.3580394195000E+00
    87  8.6000000000000E-01 -1.4267333235000E-01 -1.3683682619000E+00
    88  8.7000000000000E-01 -1.7999830419000E-01 -1.3771297786000E+00
    89  8.8000000000000E-01 -2.1622306927000E-01 -1.3842819462000E+00
    90  8.9000000000000E-01 -2.5129390519000E-01 -1.3897860044000E+00
    91  9.0000000000000E-01 -2.8516038260000E-01 -1.3936066333000E+00
    92  9.1000000000000E-01 -3.1777545326000E-01 -1.3957121251000E+00
    93  9.2000000000000E-01 -3.4909551594000E-01 -1.3960745316000E+00
    94  9.3000000000000E-01 -3.7908048213000E-01 -1.3946698123000E+00
    95  9.4000000000000E-01 -4.0769392780000E-01 -1.3914780922000E+00
    96  9.5000000000000E-01 -4.3490303860000E-01 -1.3864836737000E+00
    97  9.6000000000000E-01 -4.6067869001000E-01 -1.3796752074000E+00
    98  9.7000000000000E-01 -4.8499548090000E-01 -1.3710458094000E+00
    99  9.8000000000000E-01 -5.0783175767000E-01 -1.3605931666000E+00
   100  9.9000000000000E-01 -5.2916962858000E-01 -1.3483196294000E+00
   101  1.0000000000000E+00 -5.4899494804000E-01 -1.3342322612000E+00
   102  1.0100000000000E+00 -5.6729729394000E-01 -1.3183428723000E+00
   103  1.0200000000000E+00 -5.8407015585000E-01 -1.3006683736000E+00
   104  1.0300000000000E+00 -5.9931067052000E-01 -1.2812304677000E+00
   105  1.0400000000000E+00 -6.1301967027000E-01 -1.2600557851000E+00
   106  1.0500000000000E+00 -6.2520164073000E-01 -1.2371758895000E+00
   107  1.0600000000000E+00 -6.3586459252000E-01 -1.2126271330000E+00
   108  1.0700000000000E+00 -6.4502023705000E-01 -1.1864510228000E+00
   109  1.0800000000000E+00 -6.5268374908000E-01 -1.1586939161000E+00
   110  1.0900000000000E+00 -6.5887366606000E-01 -1.1294069099000E+00
   111  1.1000000000000E+00 -6.6361182151000E-01 -1.0986457862000E+00
   112  1.1100000000000E+00 -6.6692325540000E-01 -1.0664709042000E+00
   113  1.1200000000000E+00 -6.6883627611000E-01 -1.0329474496000E+00
   114  1.1300000000000E+00 -6.6938211082000E-01 -9.9814482076000E-01
   115  1.1400000000000E+00 -6.6859487073000E-01 -9.6213662127000E-01
   116  1.1500000000000E+00 -6.6651146457000E-01 -9.2500053415000E-01
   117  1.1600000000000E+00 -6.6317148801000E-01 -8.8681831458000E-01
   118  1.1700000000000E+00 -6.5861698018000E-01 -8.4767525223000E-01
   119  1.1800000000000E+00 -6.5289238069000E-01 -8.0766011497000E-01
   120  1.1900000000000E+00 -6.4604435908000E-01 -7.6686498468000E-01
   121  1.2000000000000E+00 -6.3812154907000E-01 -7.2538479475000E-01
   122  1.2100000000000E+00 -6.2917452143000E-01 -6.8331717726000E-01
   123  1.2200000000000E+00 -6.1925573643000E-01 -6.4076240424000E-01
   124  1.2300000000000E+00 -6.0841887534000E-01 -5.9782239107000E-01
   125  1.2400000000000E+00 -5.9671910079000E-01 -5.5460089166000E-01
   126  1.2500000000000E+00 -5.8421319252000E-01 -5.1120373945000E-01
   127  1.2600000000000E+00 -5.7095822504000E-01 -4.6773670467000E-01
   128  1.2700000000000E+00 -5.5701234492000E-01 -4.2430654729000E-01
   129  1.2800000000000E+00 -5.4243496657000E-01 -3.8102141107000E-01
   130  1.2900000000000E+00 -5.2728484263000E-01 -3.3798741366000E-01
   131  1.3000000000000E+00 -5.1162145776000E-01 -2.9531089207000E-01
   132  1.3100000000000E+00 -4.9550502463000E-01 -2.5309848674000E-01
   133  1.3200000000000E+00 -4.7899417578000E-01 -2.1145273448000E-01
   134  1.3300000000000E+00 -4.6214817722000E-01 -1.7047606116000E-01
   135  1.3400000000000E+00 -4.4502588750000E-01 -1.3026887341000E-01
   136  1.3500000000000E+00 -4.2768415063000E-01 -9.0926177891000E-02
   137  1.3600000000000E+00 -4.1018050368000E-01 -5.2542918108000E-02
   138  1.3700000000000E+00 -3.9257006017000E-01 -1.5207661392000E-02
   139  1.3800000000000E+00 -3.7490646289000E-01  2.0995740925000E-02
   140  1.3900000000000E+00 -3.5724368979000E-01  5.5984238312000E-02
   141  1.4000000000000E+00 -3.3963090851000E-01  8.9686753291000E-02
   142  1.4100000000000E+00 -3.2211792409000E-01  1.2203258747000E-01
   143  1.4200000000000E+00 -3.0475116347000E-01  1.5296012112000E-01
   144  1.4300000000000E+00 -2.8757407055000E-01  1.8241632238000E-01
   145  1.4400000000000E+00 -2.7063018998000E-01  2.1034961151000E-01
   146  1.4500000000000E+00 -2.5395627806000E-01  2.3672593307000E-01
   147  1.4600000000000E+00 -2.3759023024000E-01  2.6151046932000E-01
   148  1.4700000000000E+00 -2.2156376589000E-01  2.8468480590000E-01
   149  1.4800000000000E+00 -2.0590674242000E-01  3.0623705027000E-01
   150  1.4900000000000E+00 -1.9064613382000E-01  3.2616407032000E-01
   151  1.5000000000000E+00 -1.7580267829000E-01  3.4448018454000E-01
   152  1.5100000000000E+00 -1.6139796279000E-01  3.6119939153000E-01
   153  1.5200000000000E+00 -1.4744351623000E-01  3.7636315366000E-01
   154  1.5300000000000E+00 -1.3395314511000E-01  3.9000913158000E-01
   155  1.5400000000000E+00 -1.2093042790000E-01  4.0220357389000E-01
   156  1.5500000000000E+00 -1.0838011336000E-01  4.1300989457000E-01
   157  1.5600000000000E+00 -9.6301876293000E-02  4.2250150856000E-01
   158  1.5700000000000E+00 -8.4695765540000E-02  4.3074670450000E-01
   159  1.5800000000000E+00 -7.3560793302000E-02  4.3781106282000E-01
   160  1.5900000000000E+00 -6.2895254615000E-02  4.4375541000000E-01
   161  1.6000000000000E+00 -5.2696932294000E-02  4.4864047450000E-01
   162  1.6100000000000E+00 -4.2962661025000E-02  4.5252002885000E-01
   163  1.6200000000000E+00 -3.3688946558000E-02  4.5545044130000E-01
   164  1.6300000000000E+00 -2.4871294812000E-02  4.5747951647000E-01
   165  1.6400000000000E+00 -1.6504980813000E-02  4.5865939283000E-01
   166  1.6500000000000E+00 -8.5843115775000E-03  4.5903287286000E-01
   167  1.6600000000000E+00 -1.1033887471000E-03  4.5864804236000E-01
   168  1.6700000000000E+00  5.9445533302000E-03  4.5754354436000E-01
   169  1.6800000000000E+00  1.2566516310000E-02  4.5576362349000E-01
   170  1.6900000000000E+00  1.8770217133000E-02  4.5334348993000E-01
   171  1.7000000000000E+00  2.4563677750000E-02  4.5032378086000E-01
   172  1.7100000000000E+00  2.9955451295000E-02  4.4673689590000E-01
   173  1.7200000000000E+00  3.4954483567000E-02  4.4262010704000E-01
   174  1.7300000000000E+00  3.9570057101000E-02  4.3800353369000E-01
   175  1.7400000000000E+00  4.3811930552000E-02  4.3292132173000E-01
   176  1.7500000000000E+00  4.7690020096000E-02  4.2740175936000E-01
   177  1.7600000000000E+00  5.1214770073000E-02  4.2147609386000E-01
   178  1.7700000000000E+00  5.4396648806000E-02  4.1517115827000E-01
   179  1.7800000000000E+00  5.7246641192000E-02  4.0851551193000E-01
   180  1.7900000000000E+00  5.9775703573000E-02  4.0153484227000E-01
   181  1.8000000000000E+00  6.1995197199000E-02  3.9425521183000E-01
   182  1.8100000000000E+00  6.3916521650000E-02  3.8670141054000E-01
   183  1.8200000000000E+00  6.5551232001000E-02  3.7889717525000E-01
   184  1.8300000000000E+00  6.6911145042000E-02  3.7086658893000E-01
   185  1.8400000000000E+00  6.8007813001000E-02  3.6263121523000E-01
   186  1.8500000000000E+00  6.8853457761000E-02  3.5421456548000E-01
   187  1.8600000000000E+00  6.9459437608000E-02  3.4563619937000E-01
   188  1.8700000000000E+00  6.9838339356000E-02  3.3691904345000E-01
   189  1.8800000000000E+00  7.0001326284000E-02  3.2808126154000E-01
   190  1.8900000000000E+00  6.9960841627000E-02  3.1914403499000E-01
   191  1.9000000000000E+00  6.9728220083000E-02  3.1012541392000E-01
   192  1.9100000000000E+00  6.9315395400000E-02  3.0104442192000E-01
   193  1.9200000000000E+00  6.8733952027000E-02  2.9191911212000E-01
   194  1.9300000000000E+00  6.7995054067000E-02  2.8276631106000E-01
   195  1.9400000000000E+00  6.7110605741000E-02  2.7360413937000E-01
   196  1.9500000000000E+00  6.6090885367000E-02  2.6444739735000E-01
   197  1.9600000000000E+00  6.4947822638000E-02  2.5531370417000E-01
   198  1.9700000000000E+00  6.3691237138000E-02  2.4621682353000E-01
   199  1.9800000000000E+00  6.2332161193000E-02  2.3717240597000E-01
   200  1.9900000000000E+00  6.0880704091000E-02  2.2819446413000E-01
   201  2.0000000000000E+00  5.9346513578000E-02  2.1929609958000E-01
   202  2.0100000000000E+00  5.7740113590000E-02  2.1049168895000E-01
   203  2.0200000000000E+00  5.6069835710000E-02  2.0179206801000E-01
   204  2.0300000000000E+00  5.4345848176000E-02  1.9321076900000E-01
   205  2.0400000000000E+00  5.2576157668000E-02  1.8475794619000E-01
   206  2.0500000000000E+00  5.0769421957000E-02  1.7644460896000E-01
   207  2.0600000000000E+00  4.8934169746000E-02  1.6828147291000E-01
   208  2.0700000000000E+00  4.7077249080000E-02  1.6027665576000E-01
   209  2.0800000000000E+00  4.5207370320000E-02  1.5244090643000E-01
   210  2.0900000000000E+00  4.3330442978000E-02  1.4478076384000E-01
   211  2.1000000000000E+00  4.1453617111000E-02  1.3730447263000E-01
   212  2.1100000000000E+00  3.9583468203000E-02  1.3001933365000E-01
   213  2.1200000000000E+00  3.7725078050000E-02  1.2293036310000E-01
   214  2.1300000000000E+00  3.5885322675000E-02  1.1604508436000E-01
   215  2.1400000000000E+00  3.4068252625000E-02  1.0936679967000E-01
   216  2.1500000000000E+00  3.2279048287000E-02  1.0290034958000E-01
   217  2.1600000000000E+00  3.0522581854000E-02  9.6650019346000E-02
   218  2.1700000000000E+00  2.8801996152000E-02  9.0617470109000E-02
   219  2.1800000000000E+00  2.7122083795000E-02  8.4806655459000E-02
   220  2.1900000000000E+00  2.5485433596000E-02  7.9218220685000E-02
   221  2.2000000000000E+00  2.3894952625000E-02  7.3853165095000E-02
   222  2.2100000000000E+00  2.2354131467000E-02  6.8713226570000E-02
   223  2.2200000000000E+00  2.0864191027000E-02  6.3796760342000E-02
   224  2.2300000000000E+00  1.9427744091000E-02  5.9104013523000E-02
   225  2.2400000000000E+00  1.8046350894000E-02  5.4633629992000E-02
   226  2.2500000000000E+00  1.6720756095000E-02  5.0382987548000E-02
   227  2.2600000000000E+00  1.5452911336000E-02  4.6351046089000E-02
   228  2.2700000000000E+00  1.4242760363000E-02  4.2533883539000E-02
   229  2.2800000000000E+00  1.3090740539000E-02  3.8928145212000E-02
   230  2.2900000000000E+00  1.1997651337000E-02  3.5530853991000E-02
   231  2.3000000000000E+00  1.0962618296000E-02  3.2336731700000E-02
   232  2.3100000000000E+00  9.9856461210000E-03  2.9341510532000E-02
   233  2.3200000000000E+00  9.0662912682000E-03  2.6540282960000E-02
   234  2.3300000000000E+00  8.2033168701000E-03  2.3927092950000E-02
   235  2.3400000000000E+00  7.3961559940000E-03  2.1496591728000E-02
   236  2.3500000000000E+00  6.6434573463000E-03  1.9242569173000E-02
   237  2.3600000000000E+00  5.9436731294000E-03  1.7158512712000E-02
   238  2.3700000000000E+00  5.2956804719000E-03  1.5238057451000E-02
   239  2.3800000000000E+00  4.6975587358000E-03  1.3474336300000E-02
   240  2.3900000000000E+00  4.1474985462000E-03  1.1860391574000E-02
   241  2.4000000000000E+00  3.6438525308000E-03  1.0388992770000E-02
   242  2.4100000000000E+00  3.1844571444000E-03  9.0531976040000E-03
   243  2.4200000000000E+00  2.7672776291000E-03  7.8456692660000E-03
   244  2.4300000000000E+00  2.3902452709000E-03  6.7587402550000E-03
   245  2.4400000000000E+00  2.0511893703000E-03  5.7856704581000E-03
   246  2.4500000000000E+00  1.7478828142000E-03  4.9189298884000E-03
   247  2.4600000000000E+00  1.4780546282000E-03  4.1508460488000E-03
   248  2.4700000000000E+00  1.2396111669000E-03  3.4750894467000E-03
   249  2.4800000000000E+00  1.0302328872000E-03  2.8841859955000E-03
   250  2.4900000000000E+00  8.4761888932000E-04  2.3707917156000E-03
   251  2.5000000000000E+00  6.8983628217000E-04  1.9291985060000E-03
   252  2.5100000000000E+00  5.5458533763000E-04  1.5522656864000E-03
   253  2.5200000000000E+00  4.3965473435000E-04  1.2331969421000E-03
   254  2.5300000000000E+00  3.4335416230000E-04  9.6711223109000E-04
   255  2.5400000000000E+00  2.6352100422000E-04  7.4749331541000E-04
   256  2.5500000000000E+00  1.9810164638000E-04  5.6819738196000E-04
   257  2.5600000000000E+00  1.4572319430000E-04  4.2536045178000E-04
   258  2.5700000000000E+00  1.0447366224000E-04  3.1336584062000E-04
   259  2.5800000000000E+00  7.2482156216000E-05  2.2673469533000E-04
   260  2.5900000000000E+00  4.8753032619000E-05  1.6276713806000E-04
   261  2.6000000000000E+00  3.1724190265000E-05  1.1699073468000E-04
   262  2.6100000000000E+00  1.9704011431000E-05  8.4540555244000E-05
   263  2.6200000000000E+00  1.2108922702000E-05  6.3962653693000E-05
   264  2.6300000000000E+00  7.8049999683000E-06  5.2260198147000E-05
   265  2.6400000000000E+00  5.3050629261000E-06  4.6138794665000E-05
   266  2.6500000000000E+00  4.3575850191000E-06  4.3190841310000E-05
   267  2.6600000000000E+00  4.2115864696000E-06  4.0602200609000E-05
   268  2.6700000000000E+00  2.7892816967000E-06  2.8335302738000E-05
   269  2.6800000000000E+00  1.3918600448000E-06  1.4820299044000E-05
   270  2.6900000000000E+00  2.3191496015000E-07  2.5644126509000E-06
   271  2.7000000000000E+00 -2.3103574275000E-07 -2.2175361937000E-06
   272  2.7100000000000E+00 -2.6523081627000E-07 -2.5457486697000E-06
   273  2.7200000000000E+00 -1.0625330907000E-07 -1.0198446169000E-06
   274  2.7300000000000E+00  0.0000000000000E+00  0.0000000000000E+00
   275  2.7400000000000E+00  0.0000000000000E+00  0.0000000000000E+00
   276  2.7500000000000E+00  0.0000000000000E+00  0.0000000000000E+00
   277  2.7600000000000E+00  0.0000000000000E+00  0.0000000000000E+00
   278  2.7700000000000E+00  0.0000000000000E+00  0.0000000000000E+00
   279  2.7800000000000E+00  0.0000000000000E+00  0.0000000000000E+00
   280  2.7900000000000E+00  0.0000000000000E+00  0.0000000000000E+00
   281  2.8000000000000E+00  0.0000000000000E+00  0.0000000000000E+00
   282  2.8100000000000E+00  0.0000000000000E+00  0.0000000000000E+00
   283  2.8200000000000E+00  0.0000000000000E+00  0.0000000000000E+00
   284  2.8300000000000E+00  0.0000000000000E+00  0.0000000000000E+00
   285  2.8400000000000E+00  0.0000000000000E+00  0.0000000000000E+00
   286  2.8500000000000E+00  0.0000000000000E+00  0.0000000000000E+00
   287  2.8600000000000E+00  0.0000000000000E+00  0.0000000000000E+00
   288  2.8700000000000E+00  0.0000000000000E+00  0.0000000000000E+00
   289  2.8800000000000E+00  0.0000000000000E+00  0.0000000000000E+00
   290  2.8900000000000E+00  0.0000000000000E+00  0.0000000000000E+00
   291  2.9000000000000E+00  0.0000000000000E+00  0.0000000000000E+00
   292  2.9100000000000E+00  0.0000000000000E+00  0.0000000000000E+00
   293  2.9200000000000E+00  0.0000000000000E+00  0.0000000000000E+00
   294  2.9300000000000E+00  0.0000000000000E+00  0.0000000000000E+00
   295  2.9400000000000E+00  0.0000000000000E+00  0.0000000000000E+00
   296  2.9500000000000E+00  0.0000000000000E+00  0.0000000000000E+00
   297  2.9600000000000E+00  0.0000000000000E+00  0.0000000000000E+00
   298  2.9700000000000E+00  0.0000000000000E+00  0.0000000000000E+00
   299  2.9800000000000E+00  0.0000000000000E+00  0.0000000000000E+00
   300  2.9900000000000E+00  0.0000000000000E+00  0.0000000000000E+00
   301  3.0000000000000E+00  0.0000000000000E+00  0.0000000000000E+00
   302  3.0100000000000E+00  0.0000000000000E+00  0.0000000000000E+00
   303  3.0200000000000E+00  0.0000000000000E+00  0.0000000000000E+00
   304  3.0300000000000E+00  0.0000000000000E+00  0.0000000000000E+00
   305  3.0400000000000E+00  0.0000000000000E+00  0.0000000000000E+00
   306  3.0500000000000E+00  0.0000000000000E+00  0.0000000000000E+00
   307  3.0600000000000E+00  0.0000000000000E+00  0.0000000000000E+00
   308  3.0700000000000E+00  0.0000000000000E+00  0.0000000000000E+00
   309  3.0800000000000E+00  0.0000000000000E+00  0.0000000000000E+00
   310  3.0900000000000E+00  0.0000000000000E+00  0.0000000000000E+00
   311  3.1000000000000E+00  0.0000000000000E+00  0.0000000000000E+00
   312  3.1100000000000E+00  0.0000000000000E+00  0.0000000000000E+00
   313  3.1200000000000E+00  0.0000000000000E+00  0.0000000000000E+00
   314  3.1300000000000E+00  0.0000000000000E+00  0.0000000000000E+00
   315  3.1400000000000E+00  0.0000000000000E+00  0.0000000000000E+00
   316  3.1500000000000E+00  0.0000000000000E+00  0.0000000000000E+00
   317  3.1600000000000E+00  0.0000000000000E+00  0.0000000000000E+00
   318  3.1700000000000E+00  0.0000000000000E+00  0.0000000000000E+00
   319  3.1800000000000E+00  0.0000000000000E+00  0.0000000000000E+00
   320  3.1900000000000E+00  0.0000000000000E+00  0.0000000000000E+00
   321  3.2000000000000E+00  0.0000000000000E+00  0.0000000000000E+00
   322  3.2100000000000E+00  0.0000000000000E+00  0.0000000000000E+00
   323  3.2200000000000E+00  0.0000000000000E+00  0.0000000000000E+00
   324  3.2300000000000E+00  0.0000000000000E+00  0.0000000000000E+00
   325  3.2400000000000E+00  0.0000000000000E+00  0.0000000000000E+00
   326  3.2500000000000E+00  0.0000000000000E+00  0.0000000000000E+00
   327  3.2600000000000E+00  0.0000000000000E+00  0.0000000000000E+00
   328  3.2700000000000E+00  0.0000000000000E+00  0.0000000000000E+00
   329  3.2800000000000E+00  0.0000000000000E+00  0.0000000000000E+00
   330  3.2900000000000E+00  0.0000000000000E+00  0.0000000000000E+00
   331  3.3000000000000E+00  0.0000000000000E+00  0.0000000000000E+00
   332  3.3100000000000E+00  0.0000000000000E+00  0.0000000000000E+00
   333  3.3200000000000E+00  0.0000000000000E+00  0.0000000000000E+00
   334  3.3300000000000E+00  0.0000000000000E+00  0.0000000000000E+00
   335  3.3400000000000E+00  0.0000000000000E+00  0.0000000000000E+00
   336  3.3500000000000E+00  0.0000000000000E+00  0.0000000000000E+00
   337  3.3600000000000E+00  0.0000000000000E+00  0.0000000000000E+00
   338  3.3700000000000E+00  0.0000000000000E+00  0.0000000000000E+00
   339  3.3800000000000E+00  0.0000000000000E+00  0.0000000000000E+00
   340  3.3900000000000E+00  0.0000000000000E+00  0.0000000000000E+00
   341  3.4000000000000E+00  0.0000000000000E+00  0.0000000000000E+00
   342  3.4100000000000E+00  0.0000000000000E+00  0.0000000000000E+00
   343  3.4200000000000E+00  0.0000000000000E+00  0.0000000000000E+00
   344  3.4300000000000E+00  0.0000000000000E+00  0.0000000000000E+00
   345  3.4400000000000E+00  0.0000000000000E+00  0.0000000000000E+00
   346  3.4500000000000E+00  0.0000000000000E+00  0.0000000000000E+00
   347  3.4600000000000E+00  0.0000000000000E+00  0.0000000000000E+00
   348  3.4700000000000E+00  0.0000000000000E+00  0.0000000000000E+00
   349  3.4800000000000E+00  0.0000000000000E+00  0.0000000000000E+00
   350  3.4900000000000E+00  0.0000000000000E+00  0.0000000000000E+00
   351  3.5000000000000E+00  0.0000000000000E+00  0.0000000000000E+00
   352  3.5100000000000E+00  0.0000000000000E+00  0.0000000000000E+00
   353  3.5200000000000E+00  0.0000000000000E+00  0.0000000000000E+00
   354  3.5300000000000E+00  0.0000000000000E+00  0.0000000000000E+00
   355  3.5400000000000E+00  0.0000000000000E+00  0.0000000000000E+00
   356  3.5500000000000E+00  0.0000000000000E+00  0.0000000000000E+00
   357  3.5600000000000E+00  0.0000000000000E+00  0.0000000000000E+00
   358  3.5700000000000E+00  0.0000000000000E+00  0.0000000000000E+00
   359  3.5800000000000E+00  0.0000000000000E+00  0.0000000000000E+00
   360  3.5900000000000E+00  0.0000000000000E+00  0.0000000000000E+00
   361  3.6000000000000E+00  0.0000000000000E+00  0.0000000000000E+00
   362  3.6100000000000E+00  0.0000000000000E+00  0.0000000000000E+00
   363  3.6200000000000E+00  0.0000000000000E+00  0.0000000000000E+00
   364  3.6300000000000E+00  0.0000000000000E+00  0.0000000000000E+00
   365  3.6400000000000E+00  0.0000000000000E+00  0.0000000000000E+00
   366  3.6500000000000E+00  0.0000000000000E+00  0.0000000000000E+00
   367  3.6600000000000E+00  0.0000000000000E+00  0.0000000000000E+00
   368  3.6700000000000E+00  0.0000000000000E+00  0.0000000000000E+00
   369  3.6800000000000E+00  0.0000000000000E+00  0.0000000000000E+00
   370  3.6900000000000E+00  0.0000000000000E+00  0.0000000000000E+00
   371  3.7000000000000E+00  0.0000000000000E+00  0.0000000000000E+00
   372  3.7100000000000E+00  0.0000000000000E+00  0.0000000000000E+00
   373  3.7200000000000E+00  0.0000000000000E+00  0.0000000000000E+00
   374  3.7300000000000E+00  0.0000000000000E+00  0.0000000000000E+00
   375  3.7400000000000E+00  0.0000000000000E+00  0.0000000000000E+00
   376  3.7500000000000E+00  0.0000000000000E+00  0.0000000000000E+00
   377  3.7600000000000E+00  0.0000000000000E+00  0.0000000000000E+00
   378  3.7700000000000E+00  0.0000000000000E+00  0.0000000000000E+00
   379  3.7800000000000E+00  0.0000000000000E+00  0.0000000000000E+00
   380  3.7900000000000E+00  0.0000000000000E+00  0.0000000000000E+00
   381  3.8000000000000E+00  0.0000000000000E+00  0.0000000000000E+00
   382  3.8100000000000E+00  0.0000000000000E+00  0.0000000000000E+00
   383  3.8200000000000E+00  0.0000000000000E+00  0.0000000000000E+00
   384  3.8300000000000E+00  0.0000000000000E+00  0.0000000000000E+00
   385  3.8400000000000E+00  0.0000000000000E+00  0.0000000000000E+00
   386  3.8500000000000E+00  0.0000000000000E+00  0.0000000000000E+00
   387  3.8600000000000E+00  0.0000000000000E+00  0.0000000000000E+00
   388  3.8700000000000E+00  0.0000000000000E+00  0.0000000000000E+00
   389  3.8800000000000E+00  0.0000000000000E+00  0.0000000000000E+00
   390  3.8900000000000E+00  0.0000000000000E+00  0.0000000000000E+00
   391  3.9000000000000E+00  0.0000000000000E+00  0.0000000000000E+00
   392  3.9100000000000E+00  0.0000000000000E+00  0.0000000000000E+00
   393  3.9200000000000E+00  0.0000000000000E+00  0.0000000000000E+00
   394  3.9300000000000E+00  0.0000000000000E+00  0.0000000000000E+00
   395  3.9400000000000E+00  0.0000000000000E+00  0.0000000000000E+00
   396  3.9500000000000E+00  0.0000000000000E+00  0.0000000000000E+00
   397  3.9600000000000E+00  0.0000000000000E+00  0.0000000000000E+00
   398  3.9700000000000E+00  0.0000000000000E+00  0.0000000000000E+00
   399  3.9800000000000E+00  0.0000000000000E+00  0.0000000000000E+00
   400  3.9900000000000E+00  0.0000000000000E+00  0.0000000000000E+00
   401  4.0000000000000E+00  0.0000000000000E+00  0.0000000000000E+00
   402  4.0100000000000E+00  0.0000000000000E+00  0.0000000000000E+00
   403  4.0200000000000E+00  0.0000000000000E+00  0.0000000000000E+00
   404  4.0300000000000E+00  0.0000000000000E+00  0.0000000000000E+00
   405  4.0400000000000E+00  0.0000000000000E+00  0.0000000000000E+00
   406  4.0500000000000E+00  0.0000000000000E+00  0.0000000000000E+00
   407  4.0600000000000E+00  0.0000000000000E+00  0.0000000000000E+00
   408  4.0700000000000E+00  0.0000000000000E+00  0.0000000000000E+00
   409  4.0800000000000E+00  0.0000000000000E+00  0.0000000000000E+00
   410  4.0900000000000E+00  0.0000000000000E+00  0.0000000000000E+00
   411  4.1000000000000E+00  0.0000000000000E+00  0.0000000000000E+00
   412  4.1100000000000E+00  0.0000000000000E+00  0.0000000000000E+00
   413  4.1200000000000E+00  0.0000000000000E+00  0.0000000000000E+00
   414  4.1300000000000E+00  0.0000000000000E+00  0.0000000000000E+00
   415  4.1400000000000E+00  0.0000000000000E+00  0.0000000000000E+00
   416  4.1500000000000E+00  0.0000000000000E+00  0.0000000000000E+00
   417  4.1600000000000E+00  0.0000000000000E+00  0.0000000000000E+00
   418  4.1700000000000E+00  0.0000000000000E+00  0.0000000000000E+00
   419  4.1800000000000E+00  0.0000000000000E+00  0.0000000000000E+00
   420  4.1900000000000E+00  0.0000000000000E+00  0.0000000000000E+00
   421  4.2000000000000E+00  0.0000000000000E+00  0.0000000000000E+00
   422  4.2100000000000E+00  0.0000000000000E+00  0.0000000000000E+00
   423  4.2200000000000E+00  0.0000000000000E+00  0.0000000000000E+00