Cd   ONCVPSP-2.1.1   r_core=    2.33990 2.66799 3.04207
    48.0000   20.0000   150105   zatom,zion,pspd
    8   11   2   4   600   0   pspcod,pspxc,lmax,lloc,mmax,r2well
    5.99000000   0.00000000   0.00000000   rchrg fchrg qchrg
    2   2   2   0   0   nproj
    1   1   extension_switch
       0                         2.0527041093500E+00 -5.9380373895000E-01
     1  0.0000000000000E+00  0.0000000000000E+00  0.0000000000000E+00
     2  1.0000000000000E-02  5.6623183788000E-02  1.3366807906000E-02
     3  2.0000000000000E-02  1.1314220478000E-01  2.6753351443000E-02
     4  3.0000000000000E-02  1.6945310389000E-01  4.0179262790000E-02
     5  4.0000000000000E-02  2.2545232911000E-01  5.3663967658000E-02
     6  5.0000000000000E-02  2.8103693808000E-01  6.7226583120000E-02
     7  6.0000000000000E-02  3.3610479954000E-01  8.0885816740000E-02
     8  7.0000000000000E-02  3.9055479331000E-01  9.4659867388000E-02
     9  8.0000000000000E-02  4.4428700839000E-01  1.0856632818000E-01
    10  9.0000000000000E-02  4.9720293877000E-01  1.2262209195000E-01
    11  1.0000000000000E-01  5.4920567670000E-01  1.3684325958000E-01
    12  1.1000000000000E-01  6.0020010292000E-01  1.5124505169000E-01
    13  1.2000000000000E-01  6.5009307362000E-01  1.6584172394000E-01
    14  1.3000000000000E-01  6.9879360366000E-01  1.8064648636000E-01
    15  1.4000000000000E-01  7.4621304581000E-01  1.9567142702000E-01
    16  1.5000000000000E-01  7.9226526550000E-01  2.1092744035000E-01
    17  1.6000000000000E-01  8.3686681100000E-01  2.2642416045000E-01
    18  1.7000000000000E-01  8.7993707839000E-01  2.4216989962000E-01
    19  1.8000000000000E-01  9.2139847127000E-01  2.5817159232000E-01
    20  1.9000000000000E-01  9.6117655459000E-01  2.7443474501000E-01
    21  2.0000000000000E-01  9.9920020283000E-01  2.9096339169000E-01
    22  2.1000000000000E-01  1.0354017413000E+00  3.0776005580000E-01
    23  2.2000000000000E-01  1.0697170813000E+00  3.2482571817000E-01
    24  2.3000000000000E-01  1.1020858483000E+00  3.4215979153000E-01
    25  2.4000000000000E-01  1.1324515028000E+00  3.5976010140000E-01
    26  2.5000000000000E-01  1.1607614535000E+00  3.7762287375000E-01
    27  2.6000000000000E-01  1.1869671638000E+00  3.9574272896000E-01
    28  2.7000000000000E-01  1.2110242489000E+00  4.1411268286000E-01
    29  2.8000000000000E-01  1.2328925657000E+00  4.3272415407000E-01
    30  2.9000000000000E-01  1.2525362943000E+00  4.5156697810000E-01
    31  3.0000000000000E-01  1.2699240107000E+00  4.7062942801000E-01
    32  3.1000000000000E-01  1.2850287506000E+00  4.8989824150000E-01
    33  3.2000000000000E-01  1.2978280643000E+00  5.0935865439000E-01
    34  3.3000000000000E-01  1.3083040623000E+00  5.2899444024000E-01
    35  3.4000000000000E-01  1.3164434524000E+00  5.4878795605000E-01
    36  3.5000000000000E-01  1.3222375669000E+00  5.6872019393000E-01
    37  3.6000000000000E-01  1.3256823798000E+00  5.8877083821000E-01
    38  3.7000000000000E-01  1.3267785144000E+00  6.0891832760000E-01
    39  3.8000000000000E-01  1.3255312437000E+00  6.2913992402000E-01
    40  3.9000000000000E-01  1.3219504767000E+00  6.4941178407000E-01
    41  4.0000000000000E-01  1.3160507384000E+00  6.6970903645000E-01
    42  4.1000000000000E-01  1.3078511389000E+00  6.9000586334000E-01
    43  4.2000000000000E-01  1.2973753321000E+00  7.1027558557000E-01
    44  4.3000000000000E-01  1.2846514659000E+00  7.3049075160000E-01
    45  4.4000000000000E-01  1.2697121212000E+00  7.5062322898000E-01
    46  4.5000000000000E-01  1.2525942422000E+00  7.7064429951000E-01
    47  4.6000000000000E-01  1.2333390569000E+00  7.9052475621000E-01
    48  4.7000000000000E-01  1.2119919875000E+00  8.1023500246000E-01
    49  4.8000000000000E-01  1.1886025522000E+00  8.2974515276000E-01
    50  4.9000000000000E-01  1.1632242580000E+00  8.4902513322000E-01
    51  5.0000000000000E-01  1.1359144853000E+00  8.6804478292000E-01
    52  5.1000000000000E-01  1.1067343556000E+00  8.8677396630000E-01
    53  5.2000000000000E-01  1.0757486048000E+00  9.0518266384000E-01
    54  5.3000000000000E-01  1.0430254426000E+00  9.2324107466000E-01
    55  5.4000000000000E-01  1.0086363836000E+00  9.4091973693000E-01
    56  5.5000000000000E-01  9.7265612052000E-01  9.5818959405000E-01
    57  5.6000000000000E-01  9.3516231751000E-01  9.7502213377000E-01
    58  5.7000000000000E-01  8.9623548064000E-01  9.9138944266000E-01
    59  5.8000000000000E-01  8.5595872999000E-01  1.0072643421000E+00
    60  5.9000000000000E-01  8.1441767078000E-01  1.0226204311000E+00
    61  6.0000000000000E-01  7.7170012483000E-01  1.0374322328000E+00
    62  6.1000000000000E-01  7.2789602230000E-01  1.0516752120000E+00
    63  6.2000000000000E-01  6.8309710940000E-01  1.0653259172000E+00
    64  6.3000000000000E-01  6.3739678769000E-01  1.0783620230000E+00
    65  6.4000000000000E-01  5.9088993984000E-01  1.0907623815000E+00
    66  6.5000000000000E-01  5.4367259304000E-01  1.1025071571000E+00
    67  6.6000000000000E-01  4.9584180587000E-01  1.1135778263000E+00
    68  6.7000000000000E-01  4.4749544079000E-01  1.1239572413000E+00
    69  6.8000000000000E-01  3.9873187437000E-01  1.1336297120000E+00
    70  6.9000000000000E-01  3.4964979576000E-01  1.1425810379000E+00
    71  7.0000000000000E-01  3.0034800561000E-01  1.1507985359000E+00
    72  7.1000000000000E-01  2.5092517732000E-01  1.1582710805000E+00
    73  7.2000000000000E-01  2.0147964861000E-01  1.1649891257000E+00
    74  7.3000000000000E-01  1.5210909488000E-01  1.1709447611000E+00
    75  7.4000000000000E-01  1.0291040900000E-01  1.1761316894000E+00
    76  7.5000000000000E-01  5.3979442054000E-02  1.1805452497000E+00
    77  7.6000000000000E-01  5.4107801880000E-03  1.1841824214000E+00
    78  7.7000000000000E-01 -4.2702475274000E-02  1.1870418227000E+00
    79  7.8000000000000E-01 -9.0268924062000E-02  1.1891237029000E+00
    80  7.9000000000000E-01 -1.3719907882000E-01  1.1904299282000E+00
    81  8.0000000000000E-01 -1.8340556048000E-01  1.1909639609000E+00
    82  8.1000000000000E-01 -2.2880332634000E-01  1.1907308387000E+00
    83  8.2000000000000E-01 -2.7330985917000E-01  1.1897371423000E+00
    84  8.3000000000000E-01 -3.1684533561000E-01  1.1879909561000E+00
    85  8.4000000000000E-01 -3.5933281943000E-01  1.1855018300000E+00
    86  8.5000000000000E-01 -4.0069843558000E-01  1.1822807334000E+00
    87  8.6000000000000E-01 -4.4087153610000E-01  1.1783400048000E+00
    88  8.7000000000000E-01 -4.7978485723000E-01  1.1736932976000E+00
    89  8.8000000000000E-01 -5.1737466731000E-01  1.1683555209000E+00
    90  8.9000000000000E-01 -5.5358088074000E-01  1.1623427783000E+00
    91  9.0000000000000E-01 -5.8834723869000E-01  1.1556723019000E+00
    92  9.1000000000000E-01 -6.2162140628000E-01  1.1483623819000E+00
    93  9.2000000000000E-01 -6.5335506189000E-01  1.1404322958000E+00
    94  9.3000000000000E-01 -6.8350400373000E-01  1.1319022339000E+00
    95  9.4000000000000E-01 -7.1202823393000E-01  1.1227932227000E+00
    96  9.5000000000000E-01 -7.3889203056000E-01  1.1131270476000E+00
    97  9.6000000000000E-01 -7.6406400751000E-01  1.1029261727000E+00
    98  9.7000000000000E-01 -7.8751716175000E-01  1.0922136610000E+00
    99  9.8000000000000E-01 -8.0922890804000E-01  1.0810130937000E+00
   100  9.9000000000000E-01 -8.2918101455000E-01  1.0693485138000E+00
   101  1.0000000000000E+00 -8.4735984870000E-01  1.0572442870000E+00
   102  1.0100000000000E+00 -8.6375621691000E-01  1.0447250499000E+00
   103  1.0200000000000E+00 -8.7836532847000E-01  1.0318156402000E+00
   104  1.0300000000000E+00 -8.9118679813000E-01  1.0185410102000E+00
   105  1.0400000000000E+00 -9.0222460443000E-01  1.0049261510000E+00
   106  1.0500000000000E+00 -9.1148691882000E-01  9.9099608638000E-01
   107  1.0600000000000E+00 -9.1898642332000E-01  9.7677560303000E-01
   108  1.0700000000000E+00 -9.2473987644000E-01  9.6228933743000E-01
   109  1.0800000000000E+00 -9.2876809968000E-01  9.4756168149000E-01
   110  1.0900000000000E+00 -9.3109587198000E-01  9.3261673373000E-01
   111  1.1000000000000E+00 -9.3175182248000E-01  9.1747827157000E-01
   112  1.1100000000000E+00 -9.3076851901000E-01  9.0216943734000E-01
   113  1.1200000000000E+00 -9.2818203282000E-01  8.8671296195000E-01
   114  1.1300000000000E+00 -9.2403190173000E-01  8.7113104595000E-01
   115  1.1400000000000E+00 -9.1836099218000E-01  8.5544541913000E-01
   116  1.1500000000000E+00 -9.1121544415000E-01  8.3967685507000E-01
   117  1.1600000000000E+00 -9.0264430825000E-01  8.2384557866000E-01
   118  1.1700000000000E+00 -8.9269948267000E-01  8.0797118075000E-01
   119  1.1800000000000E+00 -8.8143557561000E-01  7.9207246899000E-01
   120  1.1900000000000E+00 -8.6890954277000E-01  7.7616725235000E-01
   121  1.2000000000000E+00 -8.5518060447000E-01  7.6027266837000E-01
   122  1.2100000000000E+00 -8.4031029235000E-01  7.4440525177000E-01
   123  1.2200000000000E+00 -8.2436162928000E-01  7.2858023676000E-01
   124  1.2300000000000E+00 -8.0739935459000E-01  7.1281218673000E-01
   125  1.2400000000000E+00 -7.8948999853000E-01  6.9711501897000E-01
   126  1.2500000000000E+00 -7.7070090286000E-01  6.8150145197000E-01
   127  1.2600000000000E+00 -7.5110033667000E-01  6.6598337458000E-01
   128  1.2700000000000E+00 -7.3075795302000E-01  6.5057208622000E-01
   129  1.2800000000000E+00 -7.0974340251000E-01  6.3527772307000E-01
   130  1.2900000000000E+00 -6.8812653623000E-01  6.2010959160000E-01
   131  1.3000000000000E+00 -6.6597830869000E-01  6.0507647731000E-01
   132  1.3100000000000E+00 -6.4336849948000E-01  5.9018597739000E-01
   133  1.3200000000000E+00 -6.2036669951000E-01  5.7544500956000E-01
   134  1.3300000000000E+00 -5.9704344567000E-01  5.6086002611000E-01
   135  1.3400000000000E+00 -5.7346634674000E-01  5.4643625352000E-01
   136  1.3500000000000E+00 -5.4970345915000E-01  5.3217854507000E-01
   137  1.3600000000000E+00 -5.2582215881000E-01  5.1809108743000E-01
   138  1.3700000000000E+00 -5.0188670688000E-01  5.0417720481000E-01
   139  1.3800000000000E+00 -4.7796215624000E-01  4.9043992287000E-01
   140  1.3900000000000E+00 -4.5411020269000E-01  4.7688148712000E-01
   141  1.4000000000000E+00 -4.3039090347000E-01  4.6350371442000E-01
   142  1.4100000000000E+00 -4.0686418293000E-01  4.5030803116000E-01
   143  1.4200000000000E+00 -3.8358459189000E-01  4.3729527654000E-01
   144  1.4300000000000E+00 -3.6060770457000E-01  4.2446607014000E-01
   145  1.4400000000000E+00 -3.3798435195000E-01  4.1182059062000E-01
   146  1.4500000000000E+00 -3.1576350912000E-01  3.9935880142000E-01
   147  1.4600000000000E+00 -2.9399279878000E-01  3.8708036990000E-01
   148  1.4700000000000E+00 -2.7271398665000E-01  3.7498485459000E-01
   149  1.4800000000000E+00 -2.5197042982000E-01  3.6307153543000E-01
   150  1.4900000000000E+00 -2.3179763395000E-01  3.5133976717000E-01
   151  1.5000000000000E+00 -2.1223205920000E-01  3.3978869779000E-01
   152  1.5100000000000E+00 -1.9330469956000E-01  3.2841756301000E-01
   153  1.5200000000000E+00 -1.7504413934000E-01  3.1722564019000E-01
   154  1.5300000000000E+00 -1.5747660400000E-01  3.0621216162000E-01
   155  1.5400000000000E+00 -1.4062271184000E-01  2.9537676598000E-01
   156  1.5500000000000E+00 -1.2450358432000E-01  2.8471880805000E-01
   157  1.5600000000000E+00 -1.0913205702000E-01  2.7423848069000E-01
   158  1.5700000000000E+00 -9.4523569027000E-02  2.6393543111000E-01
   159  1.5800000000000E+00 -8.0683981668000E-02  2.5381048741000E-01
   160  1.5900000000000E+00 -6.7621642342000E-02  2.4386392530000E-01
   161  1.6000000000000E+00 -5.5336674900000E-02  2.3409717307000E-01
   162  1.6100000000000E+00 -4.3830063473000E-02  2.2451134564000E-01
   163  1.6200000000000E+00 -3.3096140919000E-02  2.1510859579000E-01
   164  1.6300000000000E+00 -2.3128797548000E-02  2.0589100823000E-01
   165  1.6400000000000E+00 -1.3916538584000E-02  1.9686158793000E-01
   166  1.6500000000000E+00 -5.4465064848000E-03  1.8802349270000E-01
   167  1.6600000000000E+00  2.2986635072000E-03  1.7938074115000E-01
   168  1.6700000000000E+00  9.3381288748000E-03  1.7093759946000E-01
   169  1.6800000000000E+00  1.5695319102000E-02  1.6269940120000E-01
   170  1.6900000000000E+00  2.1394497746000E-02  1.5467099888000E-01
   171  1.7000000000000E+00  2.6462774450000E-02  1.4685744396000E-01
   172  1.7100000000000E+00  3.0927356993000E-02  1.3926298635000E-01
   173  1.7200000000000E+00  3.4816374433000E-02  1.3189089202000E-01
   174  1.7300000000000E+00  3.8158428379000E-02  1.2474415756000E-01
   175  1.7400000000000E+00  4.0982325184000E-02  1.1782465322000E-01
   176  1.7500000000000E+00  4.3317546459000E-02  1.1113421983000E-01
   177  1.7600000000000E+00  4.5192947864000E-02  1.0467349801000E-01
   178  1.7700000000000E+00  4.6638559721000E-02  9.8443311052000E-02
   179  1.7800000000000E+00  4.7682591161000E-02  9.2443189991000E-02
   180  1.7900000000000E+00  4.8355365982000E-02  8.6673047911000E-02
   181  1.8000000000000E+00  4.8683764109000E-02  8.1131423701000E-02
   182  1.8100000000000E+00  4.8698199947000E-02  7.5817400782000E-02
   183  1.8200000000000E+00  4.8423929452000E-02  7.0728692835000E-02
   184  1.8300000000000E+00  4.7890266757000E-02  6.5863460310000E-02
   185  1.8400000000000E+00  4.7121494632000E-02  6.1218850545000E-02
   186  1.8500000000000E+00  4.6144756303000E-02  5.6792117368000E-02
   187  1.8600000000000E+00  4.4983609708000E-02  5.2579909629000E-02
   188  1.8700000000000E+00  4.3662266082000E-02  4.8578676812000E-02
   189  1.8800000000000E+00  4.2203723809000E-02  4.4784592370000E-02
   190  1.8900000000000E+00  4.0628652474000E-02  4.1193423666000E-02
   191  1.9000000000000E+00  3.8959611355000E-02  3.7800871593000E-02
   192  1.9100000000000E+00  3.7213450628000E-02  3.4602161279000E-02
   193  1.9200000000000E+00  3.5411883461000E-02  3.1592496892000E-02
   194  1.9300000000000E+00  3.3568964928000E-02  2.8766713046000E-02
   195  1.9400000000000E+00  3.1702944670000E-02  2.6119510770000E-02
   196  1.9500000000000E+00  2.9827527671000E-02  2.3645419967000E-02
   197  1.9600000000000E+00  2.7956385504000E-02  2.1338764889000E-02
   198  1.9700000000000E+00  2.6103135246000E-02  1.9193726927000E-02
   199  1.9800000000000E+00  2.4276799788000E-02  1.7204443223000E-02
   200  1.9900000000000E+00  2.2490810582000E-02  1.5364683769000E-02
   201  2.0000000000000E+00  2.0750940579000E-02  1.3668502957000E-02
   202  2.0100000000000E+00  1.9067004631000E-02  1.2109492900000E-02
   203  2.0200000000000E+00  1.7445083510000E-02  1.0681449433000E-02
   204  2.0300000000000E+00  1.5890341457000E-02  9.3780715751000E-03
   205  2.0400000000000E+00  1.4409172085000E-02  8.1927725125000E-03
   206  2.0500000000000E+00  1.3003122075000E-02  7.1195260509000E-03
   207  2.0600000000000E+00  1.1677004874000E-02  6.1515623381000E-03
   208  2.0700000000000E+00  1.0431431419000E-02  5.2828750650000E-03
   209  2.0800000000000E+00  9.2676731562000E-03  4.5071028021000E-03
   210  2.0900000000000E+00  8.1869111162000E-03  3.8178091250000E-03
   211  2.1000000000000E+00  7.1874096010000E-03  3.2093459518000E-03
   212  2.1100000000000E+00  6.2695511528000E-03  2.6750521420000E-03
   213  2.1200000000000E+00  5.4307525932000E-03  2.2095711556000E-03
   214  2.1300000000000E+00  4.6689755979000E-03  1.8070231330000E-03
   215  2.1400000000000E+00  3.9821240833000E-03  1.4614731497000E-03
   216  2.1500000000000E+00  3.3664259890000E-03  1.1681755101000E-03
   217  2.1600000000000E+00  2.8190378860000E-03  9.2113415587000E-04
   218  2.1700000000000E+00  2.3360277828000E-03  7.1588375859000E-04
   219  2.1800000000000E+00  1.9133808480000E-03  5.4771875465000E-04
   220  2.1900000000000E+00  1.5471646060000E-03  4.1135443319000E-04
   221  2.2000000000000E+00  1.2330648161000E-03  3.0347548124000E-04
   222  2.2100000000000E+00  9.6665095063000E-04  2.1936933464000E-04
   223  2.2200000000000E+00  7.4366889556000E-04  1.5544011998000E-04
   224  2.2300000000000E+00  5.5995067858000E-04  1.0880479641000E-04
   225  2.2400000000000E+00  4.1067178114000E-04  7.5127935515000E-05
   226  2.2500000000000E+00  2.9223748930000E-04  5.2627124551000E-05
   227  2.2600000000000E+00  2.0046625976000E-04  3.8576688816000E-05
   228  2.2700000000000E+00  1.3100316287000E-04  3.0041231057000E-05
   229  2.2800000000000E+00  8.0936770207000E-05  2.6176581654000E-05
   230  2.2900000000000E+00  4.6192006694000E-05  2.4689330245000E-05
   231  2.3000000000000E+00  2.3605889899000E-05  2.4397256840000E-05
   232  2.3100000000000E+00  1.0775543126000E-05  2.5052041134000E-05
   233  2.3200000000000E+00  3.7894552319000E-06  2.6082575637000E-05
   234  2.3300000000000E+00  1.2082487440000E-06  2.6318155453000E-05
   235  2.3400000000000E+00  1.3844717295000E-06  2.4564806454000E-05
   236  2.3500000000000E+00  4.1589158483000E-07  1.6092831235000E-05
   237  2.3600000000000E+00  3.3813723121000E-08  6.6950233908000E-06
   238  2.3700000000000E+00 -3.0724682621000E-08 -5.4169694069000E-07
   239  2.3800000000000E+00 -9.3513977951000E-08 -1.6487146961000E-06
   240  2.3900000000000E+00 -5.2271773283000E-08 -9.2158672627000E-07
   241  2.4000000000000E+00  0.0000000000000E+00  0.0000000000000E+00
   242  2.4100000000000E+00  0.0000000000000E+00  0.0000000000000E+00
   243  2.4200000000000E+00  0.0000000000000E+00  0.0000000000000E+00
   244  2.4300000000000E+00  0.0000000000000E+00  0.0000000000000E+00
   245  2.4400000000000E+00  0.0000000000000E+00  0.0000000000000E+00
   246  2.4500000000000E+00  0.0000000000000E+00  0.0000000000000E+00
   247  2.4600000000000E+00  0.0000000000000E+00  0.0000000000000E+00
   248  2.4700000000000E+00  0.0000000000000E+00  0.0000000000000E+00
   249  2.4800000000000E+00  0.0000000000000E+00  0.0000000000000E+00
   250  2.4900000000000E+00  0.0000000000000E+00  0.0000000000000E+00
   251  2.5000000000000E+00  0.0000000000000E+00  0.0000000000000E+00
   252  2.5100000000000E+00  0.0000000000000E+00  0.0000000000000E+00
   253  2.5200000000000E+00  0.0000000000000E+00  0.0000000000000E+00
   254  2.5300000000000E+00  0.0000000000000E+00  0.0000000000000E+00
   255  2.5400000000000E+00  0.0000000000000E+00  0.0000000000000E+00
   256  2.5500000000000E+00  0.0000000000000E+00  0.0000000000000E+00
   257  2.5600000000000E+00  0.0000000000000E+00  0.0000000000000E+00
   258  2.5700000000000E+00  0.0000000000000E+00  0.0000000000000E+00
   259  2.5800000000000E+00  0.0000000000000E+00  0.0000000000000E+00
   260  2.5900000000000E+00  0.0000000000000E+00  0.0000000000000E+00
   261  2.6000000000000E+00  0.0000000000000E+00  0.0000000000000E+00
   262  2.6100000000000E+00  0.0000000000000E+00  0.0000000000000E+00
   263  2.6200000000000E+00  0.0000000000000E+00  0.0000000000000E+00
   264  2.6300000000000E+00  0.0000000000000E+00  0.0000000000000E+00
   265  2.6400000000000E+00  0.0000000000000E+00  0.0000000000000E+00
   266  2.6500000000000E+00  0.0000000000000E+00  0.0000000000000E+00
   267  2.6600000000000E+00  0.0000000000000E+00  0.0000000000000E+00
   268  2.6700000000000E+00  0.0000000000000E+00  0.0000000000000E+00
   269  2.6800000000000E+00  0.0000000000000E+00  0.0000000000000E+00
   270  2.6900000000000E+00  0.0000000000000E+00  0.0000000000000E+00
   271  2.7000000000000E+00  0.0000000000000E+00  0.0000000000000E+00
   272  2.7100000000000E+00  0.0000000000000E+00  0.0000000000000E+00
   273  2.7200000000000E+00  0.0000000000000E+00  0.0000000000000E+00
   274  2.7300000000000E+00  0.0000000000000E+00  0.0000000000000E+00
   275  2.7400000000000E+00  0.0000000000000E+00  0.0000000000000E+00
   276  2.7500000000000E+00  0.0000000000000E+00  0.0000000000000E+00
   277  2.7600000000000E+00  0.0000000000000E+00  0.0000000000000E+00
   278  2.7700000000000E+00  0.0000000000000E+00  0.0000000000000E+00
   279  2.7800000000000E+00  0.0000000000000E+00  0.0000000000000E+00
   280  2.7900000000000E+00  0.0000000000000E+00  0.0000000000000E+00
   281  2.8000000000000E+00  0.0000000000000E+00  0.0000000000000E+00
   282  2.8100000000000E+00  0.0000000000000E+00  0.0000000000000E+00
   283  2.8200000000000E+00  0.0000000000000E+00  0.0000000000000E+00
   284  2.8300000000000E+00  0.0000000000000E+00  0.0000000000000E+00
   285  2.8400000000000E+00  0.0000000000000E+00  0.0000000000000E+00
   286  2.8500000000000E+00  0.0000000000000E+00  0.0000000000000E+00
   287  2.8600000000000E+00  0.0000000000000E+00  0.0000000000000E+00
   288  2.8700000000000E+00  0.0000000000000E+00  0.0000000000000E+00
   289  2.8800000000000E+00  0.0000000000000E+00  0.0000000000000E+00
   290  2.8900000000000E+00  0.0000000000000E+00  0.0000000000000E+00
   291  2.9000000000000E+00  0.0000000000000E+00  0.0000000000000E+00
   292  2.9100000000000E+00  0.0000000000000E+00  0.0000000000000E+00
   293  2.9200000000000E+00  0.0000000000000E+00  0.0000000000000E+00
   294  2.9300000000000E+00  0.0000000000000E+00  0.0000000000000E+00
   295  2.9400000000000E+00  0.0000000000000E+00  0.0000000000000E+00
   296  2.9500000000000E+00  0.0000000000000E+00  0.0000000000000E+00
   297  2.9600000000000E+00  0.0000000000000E+00  0.0000000000000E+00
   298  2.9700000000000E+00  0.0000000000000E+00  0.0000000000000E+00
   299  2.9800000000000E+00  0.0000000000000E+00  0.0000000000000E+00
   300  2.9900000000000E+00  0.0000000000000E+00  0.0000000000000E+00
   301  3.0000000000000E+00  0.0000000000000E+00  0.0000000000000E+00
   302  3.0100000000000E+00  0.0000000000000E+00  0.0000000000000E+00
   303  3.0200000000000E+00  0.0000000000000E+00  0.0000000000000E+00
   304  3.0300000000000E+00  0.0000000000000E+00  0.0000000000000E+00
   305  3.0400000000000E+00  0.0000000000000E+00  0.0000000000000E+00
   306  3.0500000000000E+00  0.0000000000000E+00  0.0000000000000E+00
   307  3.0600000000000E+00  0.0000000000000E+00  0.0000000000000E+00
   308  3.0700000000000E+00  0.0000000000000E+00  0.0000000000000E+00
   309  3.0800000000000E+00  0.0000000000000E+00  0.0000000000000E+00
   310  3.0900000000000E+00  0.0000000000000E+00  0.0000000000000E+00
   311  3.1000000000000E+00  0.0000000000000E+00  0.0000000000000E+00
   312  3.1100000000000E+00  0.0000000000000E+00  0.0000000000000E+00
   313  3.1200000000000E+00  0.0000000000000E+00  0.0000000000000E+00
   314  3.1300000000000E+00  0.0000000000000E+00  0.0000000000000E+00
   315  3.1400000000000E+00  0.0000000000000E+00  0.0000000000000E+00
   316  3.1500000000000E+00  0.0000000000000E+00  0.0000000000000E+00
   317  3.1600000000000E+00  0.0000000000000E+00  0.0000000000000E+00
   318  3.1700000000000E+00  0.0000000000000E+00  0.0000000000000E+00
   319  3.1800000000000E+00  0.0000000000000E+00  0.0000000000000E+00
   320  3.1900000000000E+00  0.0000000000000E+00  0.0000000000000E+00
   321  3.2000000000000E+00  0.0000000000000E+00  0.0000000000000E+00
   322  3.2100000000000E+00  0.0000000000000E+00  0.0000000000000E+00
   323  3.2200000000000E+00  0.0000000000000E+00  0.0000000000000E+00
   324  3.2300000000000E+00  0.0000000000000E+00  0.0000000000000E+00
   325  3.2400000000000E+00  0.0000000000000E+00  0.0000000000000E+00
   326  3.2500000000000E+00  0.0000000000000E+00  0.0000000000000E+00
   327  3.2600000000000E+00  0.0000000000000E+00  0.0000000000000E+00
   328  3.2700000000000E+00  0.0000000000000E+00  0.0000000000000E+00
   329  3.2800000000000E+00  0.0000000000000E+00  0.0000000000000E+00
   330  3.2900000000000E+00  0.0000000000000E+00  0.0000000000000E+00
   331  3.3000000000000E+00  0.0000000000000E+00  0.0000000000000E+00
   332  3.3100000000000E+00  0.0000000000000E+00  0.0000000000000E+00
   333  3.3200000000000E+00  0.0000000000000E+00  0.0000000000000E+00
   334  3.3300000000000E+00  0.0000000000000E+00  0.0000000000000E+00
   335  3.3400000000000E+00  0.0000000000000E+00  0.0000000000000E+00
   336  3.3500000000000E+00  0.0000000000000E+00  0.0000000000000E+00
   337  3.3600000000000E+00  0.0000000000000E+00  0.0000000000000E+00
   338  3.3700000000000E+00  0.0000000000000E+00  0.0000000000000E+00
   339  3.3800000000000E+00  0.0000000000000E+00  0.0000000000000E+00
   340  3.3900000000000E+00  0.0000000000000E+00  0.0000000000000E+00
   341  3.4000000000000E+00  0.0000000000000E+00  0.0000000000000E+00
   342  3.4100000000000E+00  0.0000000000000E+00  0.0000000000000E+00
   343  3.4200000000000E+00  0.0000000000000E+00  0.0000000000000E+00
   344  3.4300000000000E+00  0.0000000000000E+00  0.0000000000000E+00
   345  3.4400000000000E+00  0.0000000000000E+00  0.0000000000000E+00
   346  3.4500000000000E+00  0.0000000000000E+00  0.0000000000000E+00
   347  3.4600000000000E+00  0.0000000000000E+00  0.0000000000000E+00
   348  3.4700000000000E+00  0.0000000000000E+00  0.0000000000000E+00
   349  3.4800000000000E+00  0.0000000000000E+00  0.0000000000000E+00
   350  3.4900000000000E+00  0.0000000000000E+00  0.0000000000000E+00
   351  3.5000000000000E+00  0.0000000000000E+00  0.0000000000000E+00
   352  3.5100000000000E+00  0.0000000000000E+00  0.0000000000000E+00
   353  3.5200000000000E+00  0.0000000000000E+00  0.0000000000000E+00
   354  3.5300000000000E+00  0.0000000000000E+00  0.0000000000000E+00
   355  3.5400000000000E+00  0.0000000000000E+00  0.0000000000000E+00
   356  3.5500000000000E+00  0.0000000000000E+00  0.0000000000000E+00
   357  3.5600000000000E+00  0.0000000000000E+00  0.0000000000000E+00
   358  3.5700000000000E+00  0.0000000000000E+00  0.0000000000000E+00
   359  3.5800000000000E+00  0.0000000000000E+00  0.0000000000000E+00
   360  3.5900000000000E+00  0.0000000000000E+00  0.0000000000000E+00
   361  3.6000000000000E+00  0.0000000000000E+00  0.0000000000000E+00
   362  3.6100000000000E+00  0.0000000000000E+00  0.0000000000000E+00
   363  3.6200000000000E+00  0.0000000000000E+00  0.0000000000000E+00
   364  3.6300000000000E+00  0.0000000000000E+00  0.0000000000000E+00
   365  3.6400000000000E+00  0.0000000000000E+00  0.0000000000000E+00
   366  3.6500000000000E+00  0.0000000000000E+00  0.0000000000000E+00
   367  3.6600000000000E+00  0.0000000000000E+00  0.0000000000000E+00
   368  3.6700000000000E+00  0.0000000000000E+00  0.0000000000000E+00
   369  3.6800000000000E+00  0.0000000000000E+00  0.0000000000000E+00
   370  3.6900000000000E+00  0.0000000000000E+00  0.0000000000000E+00
   371  3.7000000000000E+00  0.0000000000000E+00  0.0000000000000E+00
   372  3.7100000000000E+00  0.0000000000000E+00  0.0000000000000E+00
   373  3.7200000000000E+00  0.0000000000000E+00  0.0000000000000E+00
   374  3.7300000000000E+00  0.0000000000000E+00  0.0000000000000E+00
   375  3.7400000000000E+00  0.0000000000000E+00  0.0000000000000E+00
   376  3.7500000000000E+00  0.0000000000000E+00  0.0000000000000E+00
   377  3.7600000000000E+00  0.0000000000000E+00  0.0000000000000E+00
   378  3.7700000000000E+00  0.0000000000000E+00  0.0000000000000E+00
   379  3.7800000000000E+00  0.0000000000000E+00  0.0000000000000E+00
   380  3.7900000000000E+00  0.0000000000000E+00  0.0000000000000E+00
   381  3.8000000000000E+00  0.0000000000000E+00  0.0000000000000E+00
   382  3.8100000000000E+00  0.0000000000000E+00  0.0000000000000E+00
   383  3.8200000000000E+00  0.0000000000000E+00  0.0000000000000E+00
   384  3.8300000000000E+00  0.0000000000000E+00  0.0000000000000E+00
   385  3.8400000000000E+00  0.0000000000000E+00  0.0000000000000E+00
   386  3.8500000000000E+00  0.0000000000000E+00  0.0000000000000E+00
   387  3.8600000000000E+00  0.0000000000000E+00  0.0000000000000E+00
   388  3.8700000000000E+00  0.0000000000000E+00  0.0000000000000E+00
   389  3.8800000000000E+00  0.0000000000000E+00  0.0000000000000E+00
   390  3.8900000000000E+00  0.0000000000000E+00  0.0000000000000E+00
   391  3.9000000000000E+00  0.0000000000000E+00  0.0000000000000E+00
   392  3.9100000000000E+00  0.0000000000000E+00  0.0000000000000E+00
   393  3.9200000000000E+00  0.0000000000000E+00  0.0000000000000E+00
   394  3.9300000000000E+00  0.0000000000000E+00  0.0000000000000E+00
   395  3.9400000000000E+00  0.0000000000000E+00  0.0000000000000E+00
   396  3.9500000000000E+00  0.0000000000000E+00  0.0000000000000E+00
   397  3.9600000000000E+00  0.0000000000000E+00  0.0000000000000E+00
   398  3.9700000000000E+00  0.0000000000000E+00  0.0000000000000E+00
   399  3.9800000000000E+00  0.0000000000000E+00  0.0000000000000E+00
   400  3.9900000000000E+00  0.0000000000000E+00  0.0000000000000E+00
   401  4.0000000000000E+00  0.0000000000000E+00  0.0000000000000E+00
   402  4.0100000000000E+00  0.0000000000000E+00  0.0000000000000E+00
   403  4.0200000000000E+00  0.0000000000000E+00  0.0000000000000E+00
   404  4.0300000000000E+00  0.0000000000000E+00  0.0000000000000E+00
   405  4.0400000000000E+00  0.0000000000000E+00  0.0000000000000E+00
   406  4.0500000000000E+00  0.0000000000000E+00  0.0000000000000E+00
   407  4.0600000000000E+00  0.0000000000000E+00  0.0000000000000E+00
   408  4.0700000000000E+00  0.0000000000000E+00  0.0000000000000E+00
   409  4.0800000000000E+00  0.0000000000000E+00  0.0000000000000E+00
   410  4.0900000000000E+00  0.0000000000000E+00  0.0000000000000E+00
   411  4.1000000000000E+00  0.0000000000000E+00  0.0000000000000E+00
   412  4.1100000000000E+00  0.0000000000000E+00  0.0000000000000E+00
   413  4.1200000000000E+00  0.0000000000000E+00  0.0000000000000E+00
   414  4.1300000000000E+00  0.0000000000000E+00  0.0000000000000E+00
   415  4.1400000000000E+00  0.0000000000000E+00  0.0000000000000E+00
   416  4.1500000000000E+00  0.0000000000000E+00  0.0000000000000E+00
   417  4.1600000000000E+00  0.0000000000000E+00  0.0000000000000E+00
   418  4.1700000000000E+00  0.0000000000000E+00  0.0000000000000E+00
   419  4.1800000000000E+00  0.0000000000000E+00  0.0000000000000E+00
   420  4.1900000000000E+00  0.0000000000000E+00  0.0000000000000E+00
   421  4.2000000000000E+00  0.0000000000000E+00  0.0000000000000E+00
   422  4.2100000000000E+00  0.0000000000000E+00  0.0000000000000E+00
   423  4.2200000000000E+00  0.0000000000000E+00  0.0000000000000E+00