In   ONCVPSP-2.1.1   r_core=    3.35753 3.43859 2.67664
    49.0000   13.0000   150415   zatom,zion,pspd
    8   11   2   4   600   0   pspcod,pspxc,lmax,lloc,mmax,r2well
    5.99000000   0.00000000   0.00000000   rchrg fchrg qchrg
    2   2   2   0   0   nproj
    1   1   extension_switch
       0                         4.8434441132000E+00  4.6103168011000E-01
     1  0.0000000000000E+00  0.0000000000000E+00  0.0000000000000E+00
     2  1.0000000000000E-02 -1.4064845192000E-02  1.0633960633000E-03
     3  2.0000000000000E-02 -2.8136095880000E-02  2.1390335470000E-03
     4  3.0000000000000E-02 -4.2220131434000E-02  3.2391150350000E-03
     5  4.0000000000000E-02 -5.6323279023000E-02  4.3757654898000E-03
     6  5.0000000000000E-02 -7.0451787641000E-02  5.5609935694000E-03
     7  6.0000000000000E-02 -8.4611802273000E-02  6.8066530971000E-03
     8  7.0000000000000E-02 -9.8809338272000E-02  8.1244047385000E-03
     9  8.0000000000000E-02 -1.1305025596000E-01  9.5256779345000E-03
    10  9.0000000000000E-02 -1.2734023557000E-01  1.1021633148000E-02
    11  1.0000000000000E-01 -1.4168475245000E-01  1.2623124473000E-02
    12  1.1000000000000E-01 -1.5608905275000E-01  1.4340662671000E-02
    13  1.2000000000000E-01 -1.7055812952000E-01  1.6184378676000E-02
    14  1.3000000000000E-01 -1.8509669924000E-01  1.8163987643000E-02
    15  1.4000000000000E-01 -1.9970917897000E-01  2.0288753583000E-02
    16  1.5000000000000E-01 -2.1439966403000E-01  2.2567454664000E-02
    17  1.6000000000000E-01 -2.2917190634000E-01  2.5008349212000E-02
    18  1.7000000000000E-01 -2.4402929340000E-01  2.7619142507000E-02
    19  1.8000000000000E-01 -2.5897482803000E-01  3.0406954423000E-02
    20  1.9000000000000E-01 -2.7401110884000E-01  3.3378287955000E-02
    21  2.0000000000000E-01 -2.8914031153000E-01  3.6538998768000E-02
    22  2.1000000000000E-01 -3.0436417106000E-01  3.9894265750000E-02
    23  2.2000000000000E-01 -3.1968396467000E-01  4.3448562720000E-02
    24  2.3000000000000E-01 -3.3510049584000E-01  4.7205631296000E-02
    25  2.4000000000000E-01 -3.5061407932000E-01  5.1168455059000E-02
    26  2.5000000000000E-01 -3.6622452702000E-01  5.5339235033000E-02
    27  2.6000000000000E-01 -3.8193113510000E-01  5.9719366566000E-02
    28  2.7000000000000E-01 -3.9773267202000E-01  6.4309417716000E-02
    29  2.8000000000000E-01 -4.1362736786000E-01  6.9109109240000E-02
    30  2.9000000000000E-01 -4.2961290470000E-01  7.4117296153000E-02
    31  3.0000000000000E-01 -4.4568640817000E-01  7.9331951024000E-02
    32  3.1000000000000E-01 -4.6184444033000E-01  8.4750149078000E-02
    33  3.2000000000000E-01 -4.7808299372000E-01  9.0368055189000E-02
    34  3.3000000000000E-01 -4.9439748677000E-01  9.6180912878000E-02
    35  3.4000000000000E-01 -5.1078276029000E-01  1.0218303486000E-01
    36  3.5000000000000E-01 -5.2723307576000E-01  1.0836779672000E-01
    37  3.6000000000000E-01 -5.4374211430000E-01  1.1472763128000E-01
    38  3.7000000000000E-01 -5.6030297773000E-01  1.2125402670000E-01
    39  3.8000000000000E-01 -5.7690819045000E-01  1.2793752579000E-01
    40  3.9000000000000E-01 -5.9354970301000E-01  1.3476772799000E-01
    41  4.0000000000000E-01 -6.1021889699000E-01  1.4173329405000E-01
    42  4.1000000000000E-01 -6.2690659141000E-01  1.4882195278000E-01
    43  4.2000000000000E-01 -6.4360305039000E-01  1.5602051050000E-01
    44  4.3000000000000E-01 -6.6029799240000E-01  1.6331486297000E-01
    45  4.4000000000000E-01 -6.7698060088000E-01  1.7069001003000E-01
    46  4.5000000000000E-01 -6.9363953628000E-01  1.7813007276000E-01
    47  4.6000000000000E-01 -7.1026294957000E-01  1.8561831338000E-01
    48  4.7000000000000E-01 -7.2683849714000E-01  1.9313715784000E-01
    49  4.8000000000000E-01 -7.4335335700000E-01  2.0066822089000E-01
    50  4.9000000000000E-01 -7.5979424634000E-01  2.0819233388000E-01
    51  5.0000000000000E-01 -7.7614744137000E-01  2.1568957653000E-01
    52  5.1000000000000E-01 -7.9239879708000E-01  2.2313930942000E-01
    53  5.2000000000000E-01 -8.0853376777000E-01  2.3052020821000E-01
    54  5.3000000000000E-01 -8.2453743356000E-01  2.3781030762000E-01
    55  5.4000000000000E-01 -8.4039452093000E-01  2.4498703712000E-01
    56  5.5000000000000E-01 -8.5608942998000E-01  2.5202726751000E-01
    57  5.6000000000000E-01 -8.7160626223000E-01  2.5890735930000E-01
    58  5.7000000000000E-01 -8.8692884494000E-01  2.6560320584000E-01
    59  5.8000000000000E-01 -9.0204076537000E-01  2.7209029358000E-01
    60  5.9000000000000E-01 -9.1692539517000E-01  2.7834374645000E-01
    61  6.0000000000000E-01 -9.3156592539000E-01  2.8433838864000E-01
    62  6.1000000000000E-01 -9.4594539907000E-01  2.9004880389000E-01
    63  6.2000000000000E-01 -9.6004673525000E-01  2.9544938059000E-01
    64  6.3000000000000E-01 -9.7385277958000E-01  3.0051440323000E-01
    65  6.4000000000000E-01 -9.8734632287000E-01  3.0521808902000E-01
    66  6.5000000000000E-01 -1.0005101384000E+00  3.0953465711000E-01
    67  6.6000000000000E-01 -1.0133270313000E+00  3.1343842029000E-01
    68  6.7000000000000E-01 -1.0257798599000E+00  3.1690382708000E-01
    69  6.8000000000000E-01 -1.0378515733000E+00  3.1990553292000E-01
    70  6.9000000000000E-01 -1.0495252572000E+00  3.2241848675000E-01
    71  7.0000000000000E-01 -1.0607841699000E+00  3.2441800079000E-01
    72  7.1000000000000E-01 -1.0716117740000E+00  3.2587981157000E-01
    73  7.2000000000000E-01 -1.0819917767000E+00  3.2678015836000E-01
    74  7.3000000000000E-01 -1.0919081648000E+00  3.2709585040000E-01
    75  7.4000000000000E-01 -1.1013452498000E+00  3.2680435417000E-01
    76  7.5000000000000E-01 -1.1102877048000E+00  3.2588386620000E-01
    77  7.6000000000000E-01 -1.1187205959000E+00  3.2431337371000E-01
    78  7.7000000000000E-01 -1.1266294222000E+00  3.2207273303000E-01
    79  7.8000000000000E-01 -1.1340001525000E+00  3.1914274141000E-01
    80  7.9000000000000E-01 -1.1408192618000E+00  3.1550520789000E-01
    81  8.0000000000000E-01 -1.1470737665000E+00  3.1114302289000E-01
    82  8.1000000000000E-01 -1.1527512598000E+00  3.0604022622000E-01
    83  8.2000000000000E-01 -1.1578399457000E+00  3.0018207351000E-01
    84  8.3000000000000E-01 -1.1623286720000E+00  2.9355510055000E-01
    85  8.4000000000000E-01 -1.1662069627000E+00  2.8614718555000E-01
    86  8.5000000000000E-01 -1.1694650491000E+00  2.7794760890000E-01
    87  8.6000000000000E-01 -1.1720938999000E+00  2.6894711036000E-01
    88  8.7000000000000E-01 -1.1740852497000E+00  2.5913794333000E-01
    89  8.8000000000000E-01 -1.1754316268000E+00  2.4851392603000E-01
    90  8.9000000000000E-01 -1.1761263785000E+00  2.3707048938000E-01
    91  9.0000000000000E-01 -1.1761636962000E+00  2.2480472129000E-01
    92  9.1000000000000E-01 -1.1755386379000E+00  2.1171540723000E-01
    93  9.2000000000000E-01 -1.1742471491000E+00  1.9780306678000E-01
    94  9.3000000000000E-01 -1.1722860828000E+00  1.8306998597000E-01
    95  9.4000000000000E-01 -1.1696532161000E+00  1.6752024530000E-01
    96  9.5000000000000E-01 -1.1663472666000E+00  1.5115974311000E-01
    97  9.6000000000000E-01 -1.1623679055000E+00  1.3399621421000E-01
    98  9.7000000000000E-01 -1.1577157558000E+00  1.1603922013000E-01
    99  9.8000000000000E-01 -1.1523924360000E+00  9.7300219236000E-02
   100  9.9000000000000E-01 -1.1464005477000E+00  7.7792534797000E-02
   101  1.0000000000000E+00 -1.1397436748000E+00  5.7531342575000E-02
   102  1.0100000000000E+00 -1.1324263919000E+00  3.6533674015000E-02
   103  1.0200000000000E+00 -1.1244542644000E+00  1.4818403817000E-02
   104  1.0300000000000E+00 -1.1158338391000E+00 -7.5937814377000E-03
   105  1.0400000000000E+00 -1.1065726496000E+00 -3.0680387031000E-02
   106  1.0500000000000E+00 -1.0966792403000E+00 -5.4417095515000E-02
   107  1.0600000000000E+00 -1.0861631088000E+00 -7.8777878582000E-02
   108  1.0700000000000E+00 -1.0750347130000E+00 -1.0373500791000E-01
   109  1.0800000000000E+00 -1.0633054474000E+00 -1.2925911083000E-01
   110  1.0900000000000E+00 -1.0509876493000E+00 -1.5531918864000E-01
   111  1.1000000000000E+00 -1.0380945941000E+00 -1.8188266814000E-01
   112  1.1100000000000E+00 -1.0246404337000E+00 -2.0891551173000E-01
   113  1.1200000000000E+00 -1.0106401884000E+00 -2.3638225965000E-01
   114  1.1300000000000E+00 -9.9610972487000E-01 -2.6424607950000E-01
   115  1.1400000000000E+00 -9.8106576085000E-01 -2.9246886623000E-01
   116  1.1500000000000E+00 -9.6552578650000E-01 -3.2101133471000E-01
   117  1.1600000000000E+00 -9.4950805393000E-01 -3.4983306804000E-01
   118  1.1700000000000E+00 -9.3303155858000E-01 -3.7889259841000E-01
   119  1.1800000000000E+00 -9.1611598382000E-01 -4.0814761231000E-01
   120  1.1900000000000E+00 -8.9878166534000E-01 -4.3755494487000E-01
   121  1.2000000000000E+00 -8.8104959116000E-01 -4.6707056667000E-01
   122  1.2100000000000E+00 -8.6294129666000E-01 -4.9665001646000E-01
   123  1.2200000000000E+00 -8.4447885088000E-01 -5.2624830018000E-01
   124  1.2300000000000E+00 -8.2568486682000E-01 -5.5581984244000E-01
   125  1.2400000000000E+00 -8.0658238080000E-01 -5.8531890753000E-01
   126  1.2500000000000E+00 -7.8719478920000E-01 -6.1469972285000E-01
   127  1.2600000000000E+00 -7.6754593384000E-01 -6.4391616625000E-01
   128  1.2700000000000E+00 -7.4765994051000E-01 -6.7292228650000E-01
   129  1.2800000000000E+00 -7.2756110155000E-01 -7.0167259360000E-01
   130  1.2900000000000E+00 -7.0727407727000E-01 -7.3012142046000E-01
   131  1.3000000000000E+00 -6.8682360973000E-01 -7.5822377893000E-01
   132  1.3100000000000E+00 -6.6623444594000E-01 -7.8593550901000E-01
   133  1.3200000000000E+00 -6.4553165472000E-01 -8.1321236587000E-01
   134  1.3300000000000E+00 -6.2474005850000E-01 -8.4001161062000E-01
   135  1.3400000000000E+00 -6.0388443105000E-01 -8.6629138359000E-01
   136  1.3500000000000E+00 -5.8298984044000E-01 -8.9200979735000E-01
   137  1.3600000000000E+00 -5.6208060604000E-01 -9.1712769516000E-01
   138  1.3700000000000E+00 -5.4118125766000E-01 -9.4160604748000E-01
   139  1.3800000000000E+00 -5.2031607520000E-01 -9.6540719178000E-01
   140  1.3900000000000E+00 -4.9950865014000E-01 -9.8849587591000E-01
   141  1.4000000000000E+00 -4.7878286880000E-01 -1.0108367672000E+00
   142  1.4100000000000E+00 -4.5816154561000E-01 -1.0323978525000E+00
   143  1.4200000000000E+00 -4.3766741413000E-01 -1.0531479092000E+00
   144  1.4300000000000E+00 -4.1732283264000E-01 -1.0730572709000E+00
   145  1.4400000000000E+00 -3.9714903813000E-01 -1.0920995055000E+00
   146  1.4500000000000E+00 -3.7716765279000E-01 -1.1102478862000E+00
   147  1.4600000000000E+00 -3.5739856658000E-01 -1.1274802601000E+00
   148  1.4700000000000E+00 -3.3786186536000E-01 -1.1437745595000E+00
   149  1.4800000000000E+00 -3.1857653735000E-01 -1.1591117610000E+00
   150  1.4900000000000E+00 -2.9956075171000E-01 -1.1734751171000E+00
   151  1.5000000000000E+00 -2.8083248090000E-01 -1.1868488942000E+00
   152  1.5100000000000E+00 -2.6240786572000E-01 -1.1992216646000E+00
   153  1.5200000000000E+00 -2.4430365938000E-01 -1.2105813099000E+00
   154  1.5300000000000E+00 -2.2653412737000E-01 -1.2209211696000E+00
   155  1.5400000000000E+00 -2.0911412917000E-01 -1.2302339072000E+00
   156  1.5500000000000E+00 -1.9205651092000E-01 -1.2385165199000E+00
   157  1.5600000000000E+00 -1.7537397653000E-01 -1.2457666833000E+00
   158  1.5700000000000E+00 -1.5907788059000E-01 -1.2519850150000E+00
   159  1.5800000000000E+00 -1.4317874194000E-01 -1.2571739083000E+00
   160  1.5900000000000E+00 -1.2768634511000E-01 -1.2613375417000E+00
   161  1.6000000000000E+00 -1.1260904704000E-01 -1.2644825877000E+00
   162  1.6100000000000E+00 -9.7954990109000E-02 -1.2666166705000E+00
   163  1.6200000000000E+00 -8.3730436574000E-02 -1.2677501832000E+00
   164  1.6300000000000E+00 -6.9941831066000E-02 -1.2678939970000E+00
   165  1.6400000000000E+00 -5.6593445713000E-02 -1.2670615660000E+00
   166  1.6500000000000E+00 -4.3689996277000E-02 -1.2652667065000E+00
   167  1.6600000000000E+00 -3.1233901633000E-02 -1.2625251872000E+00
   168  1.6700000000000E+00 -1.9228147871000E-02 -1.2588533463000E+00
   169  1.6800000000000E+00 -7.6734660004000E-03 -1.2542684504000E+00
   170  1.6900000000000E+00  3.4288533100000E-03 -1.2487887985000E+00
   171  1.7000000000000E+00  1.4079576769000E-02 -1.2424322846000E+00
   172  1.7100000000000E+00  2.4279035056000E-02 -1.2352184503000E+00
   173  1.7200000000000E+00  3.4029282647000E-02 -1.2271649174000E+00
   174  1.7300000000000E+00  4.3332150762000E-02 -1.2182914641000E+00
   175  1.7400000000000E+00  5.2190761288000E-02 -1.2086148027000E+00
   176  1.7500000000000E+00  6.0608250949000E-02 -1.1981529965000E+00
   177  1.7600000000000E+00  6.8588637480000E-02 -1.1869236093000E+00
   178  1.7700000000000E+00  7.6136123856000E-02 -1.1749443783000E+00
   179  1.7800000000000E+00  8.3255561736000E-02 -1.1622350508000E+00
   180  1.7900000000000E+00  8.9952109820000E-02 -1.1488159638000E+00
   181  1.8000000000000E+00  9.6231410263000E-02 -1.1347088026000E+00
   182  1.8100000000000E+00  1.0209951412000E-01 -1.1199362792000E+00
   183  1.8200000000000E+00  1.0756281624000E-01 -1.1045218959000E+00
   184  1.8300000000000E+00  1.1262817211000E-01 -1.0884903772000E+00
   185  1.8400000000000E+00  1.1730270388000E-01 -1.0718669497000E+00
   186  1.8500000000000E+00  1.2159396135000E-01 -1.0546779562000E+00
   187  1.8600000000000E+00  1.2550978146000E-01 -1.0369503004000E+00
   188  1.8700000000000E+00  1.2905829071000E-01 -1.0187115239000E+00
   189  1.8800000000000E+00  1.3224800209000E-01 -9.9999007547000E-01
   190  1.8900000000000E+00  1.3508755020000E-01 -9.8081444654000E-01
   191  1.9000000000000E+00  1.3758599799000E-01 -9.6121419326000E-01
   192  1.9100000000000E+00  1.3975249926000E-01 -9.4121879352000E-01
   193  1.9200000000000E+00  1.4159649402000E-01 -9.2085831099000E-01
   194  1.9300000000000E+00  1.4312768850000E-01 -9.0016332504000E-01
   195  1.9400000000000E+00  1.4435570632000E-01 -8.7916374462000E-01
   196  1.9500000000000E+00  1.4529084930000E-01 -8.5789139499000E-01
   197  1.9600000000000E+00  1.4594285168000E-01 -8.3637578789000E-01
   198  1.9700000000000E+00  1.4632227796000E-01 -8.1464886155000E-01
   199  1.9800000000000E+00  1.4643924243000E-01 -7.9274065206000E-01
   200  1.9900000000000E+00  1.4630422009000E-01 -7.7068202765000E-01
   201  2.0000000000000E+00  1.4592785463000E-01 -7.4850405010000E-01
   202  2.0100000000000E+00  1.4532027854000E-01 -7.2623569147000E-01
   203  2.0200000000000E+00  1.4449270135000E-01 -7.0390914721000E-01
   204  2.0300000000000E+00  1.4345502650000E-01 -6.8155190129000E-01
   205  2.0400000000000E+00  1.4221822621000E-01 -6.5919461331000E-01
   206  2.0500000000000E+00  1.4079272115000E-01 -6.3686576745000E-01
   207  2.0600000000000E+00  1.3918873038000E-01 -6.1459282133000E-01
   208  2.0700000000000E+00  1.3741735563000E-01 -5.9240576966000E-01
   209  2.0800000000000E+00  1.3548812719000E-01 -5.7032913545000E-01
   210  2.0900000000000E+00  1.3341194246000E-01 -5.4839152644000E-01
   211  2.1000000000000E+00  1.3119863413000E-01 -5.2661778077000E-01
   212  2.1100000000000E+00  1.2885800865000E-01 -5.0503230503000E-01
   213  2.1200000000000E+00  1.2640071204000E-01 -4.8366185485000E-01
   214  2.1300000000000E+00  1.2383551321000E-01 -4.6252688966000E-01
   215  2.1400000000000E+00  1.2117270393000E-01 -4.4165234773000E-01
   216  2.1500000000000E+00  1.1842137973000E-01 -4.2105910037000E-01
   217  2.1600000000000E+00  1.1559033063000E-01 -4.0076673701000E-01
   218  2.1700000000000E+00  1.1268964740000E-01 -3.8079855916000E-01
   219  2.1800000000000E+00  1.0972691351000E-01 -3.6116983623000E-01
   220  2.1900000000000E+00  1.0671129406000E-01 -3.4190036436000E-01
   221  2.2000000000000E+00  1.0365120427000E-01 -3.2300737087000E-01
   222  2.2100000000000E+00  1.0055398237000E-01 -3.0450452568000E-01
   223  2.2200000000000E+00  9.7428624898000E-02 -2.8641014733000E-01
   224  2.2300000000000E+00  9.4281761651000E-02 -2.6873526069000E-01
   225  2.2400000000000E+00  9.1120741276000E-02 -2.5149270615000E-01
   226  2.2500000000000E+00  8.7953493292000E-02 -2.3469672933000E-01
   227  2.2600000000000E+00  8.4785615051000E-02 -2.1835456117000E-01
   228  2.2700000000000E+00  8.1624333956000E-02 -2.0247780182000E-01
   229  2.2800000000000E+00  7.8475858305000E-02 -1.8707491795000E-01
   230  2.2900000000000E+00  7.5345363361000E-02 -1.7215120362000E-01
   231  2.3000000000000E+00  7.2239634977000E-02 -1.5771610790000E-01
   232  2.3100000000000E+00  6.9163204403000E-02 -1.4377270106000E-01
   233  2.3200000000000E+00  6.6120857971000E-02 -1.3032447298000E-01
   234  2.3300000000000E+00  6.3118678859000E-02 -1.1737805817000E-01
   235  2.3400000000000E+00  6.0159783189000E-02 -1.0493211112000E-01
   236  2.3500000000000E+00  5.7248701523000E-02 -9.2988668726000E-02
   237  2.3600000000000E+00  5.4390040884000E-02 -8.1549704995000E-02
   238  2.3700000000000E+00  5.1586344601000E-02 -7.0611835460000E-02
   239  2.3800000000000E+00  4.8841543560000E-02 -6.0174780460000E-02
   240  2.3900000000000E+00  4.6158879940000E-02 -5.0236415471000E-02
   241  2.4000000000000E+00  4.3540331954000E-02 -4.0791435563000E-02
   242  2.4100000000000E+00  4.0989168024000E-02 -3.1837168753000E-02
   243  2.4200000000000E+00  3.8507423100000E-02 -2.3368067642000E-02
   244  2.4300000000000E+00  3.6096506745000E-02 -1.5377008085000E-02
   245  2.4400000000000E+00  3.3758980575000E-02 -7.8589262365000E-03
   246  2.4500000000000E+00  3.1495853150000E-02 -8.0556297409000E-04
   247  2.4600000000000E+00  2.9307961852000E-02  5.7919051025000E-03
   248  2.4700000000000E+00  2.7197139138000E-02  1.1940848859000E-02
   249  2.4800000000000E+00  2.5163553800000E-02  1.7651551250000E-02
   250  2.4900000000000E+00  2.3207475864000E-02  2.2934370951000E-02
   251  2.5000000000000E+00  2.1330009130000E-02  2.7798816309000E-02
   252  2.5100000000000E+00  1.9530662199000E-02  3.2256573153000E-02
   253  2.5200000000000E+00  1.7809156649000E-02  3.6319311674000E-02
   254  2.5300000000000E+00  1.6165890354000E-02  3.9998426730000E-02
   255  2.5400000000000E+00  1.4599874598000E-02  4.3306486617000E-02
   256  2.5500000000000E+00  1.3110319031000E-02  4.6256181638000E-02
   257  2.5600000000000E+00  1.1696959582000E-02  4.8860464347000E-02
   258  2.5700000000000E+00  1.0358448507000E-02  5.1132392841000E-02
   259  2.5800000000000E+00  9.0935394970000E-03  5.3085317223000E-02
   260  2.5900000000000E+00  7.9013711382000E-03  5.4733343468000E-02
   261  2.6000000000000E+00  6.7803435135000E-03  5.6089776217000E-02
   262  2.6100000000000E+00  5.7288301770000E-03  5.7168201089000E-02
   263  2.6200000000000E+00  4.7454575282000E-03  5.7983399893000E-02
   264  2.6300000000000E+00  3.8284430843000E-03  5.8548843251000E-02
   265  2.6400000000000E+00  2.9758749381000E-03  5.8877876072000E-02
   266  2.6500000000000E+00  2.1859730316000E-03  5.8985410422000E-02
   267  2.6600000000000E+00  1.4568010042000E-03  5.8885163468000E-02
   268  2.6700000000000E+00  7.8627220846000E-04  5.8589732491000E-02
   269  2.6800000000000E+00  1.7232547134000E-04  5.8113560037000E-02
   270  2.6900000000000E+00 -3.8714128982000E-04  5.7470826302000E-02
   271  2.7000000000000E+00 -8.9426794953000E-04  5.6672876403000E-02
   272  2.7100000000000E+00 -1.3512552280000E-03  5.5733057600000E-02
   273  2.7200000000000E+00 -1.7604164982000E-03  5.4666307982000E-02
   274  2.7300000000000E+00 -2.1238209879000E-03  5.3482265309000E-02
   275  2.7400000000000E+00 -2.4436927127000E-03  5.2192971956000E-02
   276  2.7500000000000E+00 -2.7225175510000E-03  5.0813217781000E-02
   277  2.7600000000000E+00 -2.9622826925000E-03  4.9351772451000E-02
   278  2.7700000000000E+00 -3.1651434601000E-03  4.7819072595000E-02
   279  2.7800000000000E+00 -3.3335473489000E-03  4.6228064097000E-02
   280  2.7900000000000E+00 -3.4695791552000E-03  4.4588311467000E-02
   281  2.8000000000000E+00 -3.5751693936000E-03  4.2907843439000E-02
   282  2.8100000000000E+00 -3.6525647652000E-03  4.1197148220000E-02
   283  2.8200000000000E+00 -3.7040825547000E-03  3.9467120153000E-02
   284  2.8300000000000E+00 -3.7313121793000E-03  3.7723096608000E-02
   285  2.8400000000000E+00 -3.7362160936000E-03  3.5973079925000E-02
   286  2.8500000000000E+00 -3.7212558632000E-03  3.4228266345000E-02
   287  2.8600000000000E+00 -3.6877981756000E-03  3.2492547542000E-02
   288  2.8700000000000E+00 -3.6375355425000E-03  3.0771867775000E-02
   289  2.8800000000000E+00 -3.5725415354000E-03  2.9074401165000E-02
   290  2.8900000000000E+00 -3.4945093963000E-03  2.7405985707000E-02
   291  2.9000000000000E+00 -3.4046430201000E-03  2.5769475391000E-02
   292  2.9100000000000E+00 -3.3045009075000E-03  2.4169746669000E-02
   293  2.9200000000000E+00 -3.1962075771000E-03  2.2614678466000E-02
   294  2.9300000000000E+00 -3.0804473757000E-03  2.1104283598000E-02
   295  2.9400000000000E+00 -2.9585004406000E-03  1.9641738651000E-02
   296  2.9500000000000E+00 -2.8320076879000E-03  1.8231947946000E-02
   297  2.9600000000000E+00 -2.7020792144000E-03  1.6877137302000E-02
   298  2.9700000000000E+00 -2.5694304775000E-03  1.5577527043000E-02
   299  2.9800000000000E+00 -2.4350893192000E-03  1.4334825715000E-02
   300  2.9900000000000E+00 -2.3006824125000E-03  1.3153367548000E-02
   301  3.0000000000000E+00 -2.1663839159000E-03  1.2030951703000E-02
   302  3.0100000000000E+00 -2.0329563939000E-03  1.0967956463000E-02
   303  3.0200000000000E+00 -1.9014202878000E-03  9.9657326817000E-03
   304  3.0300000000000E+00 -1.7725302733000E-03  9.0245410162000E-03
   305  3.0400000000000E+00 -1.6464731674000E-03  8.1423619042000E-03
   306  3.0500000000000E+00 -1.5237711826000E-03  7.3184537190000E-03
   307  3.0600000000000E+00 -1.4053580487000E-03  6.5533927472000E-03
   308  3.0700000000000E+00 -1.2912787852000E-03  5.8447852866000E-03
   309  3.0800000000000E+00 -1.1817313154000E-03  5.1907026905000E-03
   310  3.0900000000000E+00 -1.0770822382000E-03  4.5896782185000E-03
   311  3.1000000000000E+00 -9.7790895616000E-04  4.0407222700000E-03
   312  3.1100000000000E+00 -8.8396385500000E-04  3.5407990546000E-03
   313  3.1200000000000E+00 -7.9535838393000E-04  3.0877110924000E-03
   314  3.1300000000000E+00 -7.1235760015000E-04  2.6794020798000E-03
   315  3.1400000000000E+00 -6.3505233206000E-04  2.3135798364000E-03
   316  3.1500000000000E+00 -5.6320841012000E-04  1.9875429004000E-03
   317  3.1600000000000E+00 -4.9678384979000E-04  1.6987753552000E-03
   318  3.1700000000000E+00 -4.3590653856000E-04  1.4445479168000E-03
   319  3.1800000000000E+00 -3.8036903115000E-04  1.2224388261000E-03
   320  3.1900000000000E+00 -3.2993626424000E-04  1.0300165790000E-03
   321  3.2000000000000E+00 -2.8445016399000E-04  8.6473207086000E-04
   322  3.2100000000000E+00 -2.4388711130000E-04  7.2324712771000E-04
   323  3.2200000000000E+00 -2.0790661980000E-04  6.0391561634000E-04
   324  3.2300000000000E+00 -1.7625747210000E-04  5.0455073985000E-04
   325  3.2400000000000E+00 -1.4870638795000E-04  4.2276700129000E-04
   326  3.2500000000000E+00 -1.2507615696000E-04  3.5503598196000E-04
   327  3.2600000000000E+00 -1.0502416211000E-04  3.0082406364000E-04
   328  3.2700000000000E+00 -8.8271706743000E-05  2.5830803939000E-04
   329  3.2800000000000E+00 -7.4537462127000E-05  2.2534269470000E-04
   330  3.2900000000000E+00 -6.3539354876000E-05  1.9899051422000E-04
   331  3.3000000000000E+00 -5.4978427230000E-05  1.7954319300000E-04
   332  3.3100000000000E+00 -4.8557717723000E-05  1.6581717116000E-04
   333  3.3200000000000E+00 -4.4306462584000E-05  1.5753126672000E-04
   334  3.3300000000000E+00 -4.2549729437000E-05  1.5522226770000E-04
   335  3.3400000000000E+00 -4.1349694985000E-05  1.5313256727000E-04
   336  3.3500000000000E+00 -3.9827746181000E-05  1.4844445835000E-04
   337  3.3600000000000E+00 -3.5823203353000E-05  1.3378530233000E-04
   338  3.3700000000000E+00 -2.6397186496000E-05  9.9019180604000E-05
   339  3.3800000000000E+00 -1.6313920235000E-05  6.1404783178000E-05
   340  3.3900000000000E+00 -6.6215493575000E-06  2.4990985849000E-05
   341  3.4000000000000E+00  6.4618544652000E-07 -2.4101115319000E-06
   342  3.4100000000000E+00  2.3459751977000E-06 -8.7499059408000E-06
   343  3.4200000000000E+00  2.3871962697000E-06 -8.9036503211000E-06
   344  3.4300000000000E+00  1.3371446705000E-06 -4.9872181547000E-06
   345  3.4400000000000E+00  0.0000000000000E+00  0.0000000000000E+00
   346  3.4500000000000E+00  0.0000000000000E+00  0.0000000000000E+00
   347  3.4600000000000E+00  0.0000000000000E+00  0.0000000000000E+00
   348  3.4700000000000E+00  0.0000000000000E+00  0.0000000000000E+00
   349  3.4800000000000E+00  0.0000000000000E+00  0.0000000000000E+00
   350  3.4900000000000E+00  0.0000000000000E+00  0.0000000000000E+00
   351  3.5000000000000E+00  0.0000000000000E+00  0.0000000000000E+00
   352  3.5100000000000E+00  0.0000000000000E+00  0.0000000000000E+00
   353  3.5200000000000E+00  0.0000000000000E+00  0.0000000000000E+00
   354  3.5300000000000E+00  0.0000000000000E+00  0.0000000000000E+00
   355  3.5400000000000E+00  0.0000000000000E+00  0.0000000000000E+00
   356  3.5500000000000E+00  0.0000000000000E+00  0.0000000000000E+00
   357  3.5600000000000E+00  0.0000000000000E+00  0.0000000000000E+00
   358  3.5700000000000E+00  0.0000000000000E+00  0.0000000000000E+00
   359  3.5800000000000E+00  0.0000000000000E+00  0.0000000000000E+00
   360  3.5900000000000E+00  0.0000000000000E+00  0.0000000000000E+00
   361  3.6000000000000E+00  0.0000000000000E+00  0.0000000000000E+00
   362  3.6100000000000E+00  0.0000000000000E+00  0.0000000000000E+00
   363  3.6200000000000E+00  0.0000000000000E+00  0.0000000000000E+00
   364  3.6300000000000E+00  0.0000000000000E+00  0.0000000000000E+00
   365  3.6400000000000E+00  0.0000000000000E+00  0.0000000000000E+00
   366  3.6500000000000E+00  0.0000000000000E+00  0.0000000000000E+00
   367  3.6600000000000E+00  0.0000000000000E+00  0.0000000000000E+00
   368  3.6700000000000E+00  0.0000000000000E+00  0.0000000000000E+00
   369  3.6800000000000E+00  0.0000000000000E+00  0.0000000000000E+00
   370  3.6900000000000E+00  0.0000000000000E+00  0.0000000000000E+00
   371  3.7000000000000E+00  0.0000000000000E+00  0.0000000000000E+00
   372  3.7100000000000E+00  0.0000000000000E+00  0.0000000000000E+00
   373  3.7200000000000E+00  0.0000000000000E+00  0.0000000000000E+00
   374  3.7300000000000E+00  0.0000000000000E+00  0.0000000000000E+00
   375  3.7400000000000E+00  0.0000000000000E+00  0.0000000000000E+00
   376  3.7500000000000E+00  0.0000000000000E+00  0.0000000000000E+00
   377  3.7600000000000E+00  0.0000000000000E+00  0.0000000000000E+00
   378  3.7700000000000E+00  0.0000000000000E+00  0.0000000000000E+00
   379  3.7800000000000E+00  0.0000000000000E+00  0.0000000000000E+00
   380  3.7900000000000E+00  0.0000000000000E+00  0.0000000000000E+00
   381  3.8000000000000E+00  0.0000000000000E+00  0.0000000000000E+00
   382  3.8100000000000E+00  0.0000000000000E+00  0.0000000000000E+00
   383  3.8200000000000E+00  0.0000000000000E+00  0.0000000000000E+00
   384  3.8300000000000E+00  0.0000000000000E+00  0.0000000000000E+00
   385  3.8400000000000E+00  0.0000000000000E+00  0.0000000000000E+00
   386  3.8500000000000E+00  0.0000000000000E+00  0.0000000000000E+00
   387  3.8600000000000E+00  0.0000000000000E+00  0.0000000000000E+00
   388  3.8700000000000E+00  0.0000000000000E+00  0.0000000000000E+00
   389  3.8800000000000E+00  0.0000000000000E+00  0.0000000000000E+00
   390  3.8900000000000E+00  0.0000000000000E+00  0.0000000000000E+00
   391  3.9000000000000E+00  0.0000000000000E+00  0.0000000000000E+00
   392  3.9100000000000E+00  0.0000000000000E+00  0.0000000000000E+00
   393  3.9200000000000E+00  0.0000000000000E+00  0.0000000000000E+00
   394  3.9300000000000E+00  0.0000000000000E+00  0.0000000000000E+00
   395  3.9400000000000E+00  0.0000000000000E+00  0.0000000000000E+00
   396  3.9500000000000E+00  0.0000000000000E+00  0.0000000000000E+00
   397  3.9600000000000E+00  0.0000000000000E+00  0.0000000000000E+00
   398  3.9700000000000E+00  0.0000000000000E+00  0.0000000000000E+00
   399  3.9800000000000E+00  0.0000000000000E+00  0.0000000000000E+00
   400  3.9900000000000E+00  0.0000000000000E+00  0.0000000000000E+00
   401  4.0000000000000E+00  0.0000000000000E+00  0.0000000000000E+00
   402  4.0100000000000E+00  0.0000000000000E+00  0.0000000000000E+00
   403  4.0200000000000E+00  0.0000000000000E+00  0.0000000000000E+00
   404  4.0300000000000E+00  0.0000000000000E+00  0.0000000000000E+00
   405  4.0400000000000E+00  0.0000000000000E+00  0.0000000000000E+00
   406  4.0500000000000E+00  0.0000000000000E+00  0.0000000000000E+00
   407  4.0600000000000E+00  0.0000000000000E+00  0.0000000000000E+00
   408  4.0700000000000E+00  0.0000000000000E+00  0.0000000000000E+00
   409  4.0800000000000E+00  0.0000000000000E+00  0.0000000000000E+00
   410  4.0900000000000E+00  0.0000000000000E+00  0.0000000000000E+00
   411  4.1000000000000E+00  0.0000000000000E+00  0.0000000000000E+00
   412  4.1100000000000E+00  0.0000000000000E+00  0.0000000000000E+00
   413  4.1200000000000E+00  0.0000000000000E+00  0.0000000000000E+00
   414  4.1300000000000E+00  0.0000000000000E+00  0.0000000000000E+00
   415  4.1400000000000E+00  0.0000000000000E+00  0.0000000000000E+00
   416  4.1500000000000E+00  0.0000000000000E+00  0.0000000000000E+00
   417  4.1600000000000E+00  0.0000000000000E+00  0.0000000000000E+00
   418  4.1700000000000E+00  0.0000000000000E+00  0.0000000000000E+00
   419  4.1800000000000E+00  0.0000000000000E+00  0.0000000000000E+00
   420  4.1900000000000E+00  0.0000000000000E+00  0.0000000000000E+00
   421  4.2000000000000E+00  0.0000000000000E+00  0.0000000000000E+00
   422  4.2100000000000E+00  0.0000000000000E+00  0.0000000000000E+00
   423  4.2200000000000E+00  0.0000000000000E+00  0.0000000000000E+00