Sn   ONCVPSP-2.1.1   r_core=    2.78432 2.92039 3.36982
    50.0000   14.0000   150415   zatom,zion,pspd
    8   11   2   4   600   0   pspcod,pspxc,lmax,lloc,mmax,r2well
    5.99000000   0.00000000   0.00000000   rchrg fchrg qchrg
    2   2   2   0   0   nproj
    1   1   extension_switch
       0                         5.3379260180000E+00  1.2351875137500E+00
     1  0.0000000000000E+00  0.0000000000000E+00  0.0000000000000E+00
     2  1.0000000000000E-02 -1.9505507808000E-02  7.5308628054000E-03
     3  2.0000000000000E-02 -3.9013204255000E-02  1.5014823238000E-02
     4  3.0000000000000E-02 -5.8525245590000E-02  2.2405161754000E-02
     5  4.0000000000000E-02 -7.8043723383000E-02  2.9655523886000E-02
     6  5.0000000000000E-02 -9.7570632451000E-02  3.6720101306000E-02
     7  6.0000000000000E-02 -1.1710783909000E-01  4.3553811138000E-02
     8  7.0000000000000E-02 -1.3665704971000E-01  5.0112472929000E-02
     9  8.0000000000000E-02 -1.5621978003000E-01  5.6352982717000E-02
    10  9.0000000000000E-02 -1.7579732483000E-01  6.2233483621000E-02
    11  1.0000000000000E-01 -1.9539072844000E-01  6.7713532411000E-02
    12  1.1000000000000E-01 -2.1500075604000E-01  7.2754261510000E-02
    13  1.2000000000000E-01 -2.3462786591000E-01  7.7318535896000E-02
    14  1.3000000000000E-01 -2.5427218253000E-01  8.1371104410000E-02
    15  1.4000000000000E-01 -2.7393347095000E-01  8.4878744915000E-02
    16  1.5000000000000E-01 -2.9361111216000E-01  8.7810402934000E-02
    17  1.6000000000000E-01 -3.1330407982000E-01  9.0137323144000E-02
    18  1.7000000000000E-01 -3.3301091823000E-01  9.1833173493000E-02
    19  1.8000000000000E-01 -3.5272972175000E-01  9.2874161284000E-02
    20  1.9000000000000E-01 -3.7245811568000E-01  9.3239141060000E-02
    21  2.0000000000000E-01 -3.9219323863000E-01  9.2909713656000E-02
    22  2.1000000000000E-01 -4.1193172654000E-01  9.1870316483000E-02
    23  2.2000000000000E-01 -4.3166969826000E-01  9.0108304186000E-02
    24  2.3000000000000E-01 -4.5140274295000E-01  8.7614019802000E-02
    25  2.4000000000000E-01 -4.7112590913000E-01  8.4380855901000E-02
    26  2.5000000000000E-01 -4.9083369547000E-01  8.0405306010000E-02
    27  2.6000000000000E-01 -5.1052004361000E-01  7.5687004780000E-02
    28  2.7000000000000E-01 -5.3017833252000E-01  7.0228758789000E-02
    29  2.8000000000000E-01 -5.4980137502000E-01  6.4036565764000E-02
    30  2.9000000000000E-01 -5.6938141602000E-01  5.7119623443000E-02
    31  3.0000000000000E-01 -5.8891013275000E-01  4.9490327542000E-02
    32  3.1000000000000E-01 -6.0837863684000E-01  4.1164258779000E-02
    33  3.2000000000000E-01 -6.2777747841000E-01  3.2160158992000E-02
    34  3.3000000000000E-01 -6.4709665195000E-01  2.2499896598000E-02
    35  3.4000000000000E-01 -6.6632560427000E-01  1.2208420782000E-02
    36  3.5000000000000E-01 -6.8545324420000E-01  1.3137053725000E-03
    37  3.6000000000000E-01 -7.0446795422000E-01 -1.0153317918000E-02
    38  3.7000000000000E-01 -7.2335760405000E-01 -2.2158837308000E-02
    39  3.8000000000000E-01 -7.4210956582000E-01 -3.4666247838000E-02
    40  3.9000000000000E-01 -7.6071073118000E-01 -4.7636248895000E-02
    41  4.0000000000000E-01 -7.7914753038000E-01 -6.1026952759000E-02
    42  4.1000000000000E-01 -7.9740595260000E-01 -7.4794000197000E-02
    43  4.2000000000000E-01 -8.1547156822000E-01 -8.8890686805000E-02
    44  4.3000000000000E-01 -8.3332955272000E-01 -1.0326809781000E-01
    45  4.4000000000000E-01 -8.5096471198000E-01 -1.1787525128000E-01
    46  4.5000000000000E-01 -8.6836150921000E-01 -1.3265924936000E-01
    47  4.6000000000000E-01 -8.8550409322000E-01 -1.4756543704000E-01
    48  4.7000000000000E-01 -9.0237632758000E-01 -1.6253756532000E-01
    49  4.8000000000000E-01 -9.1896182243000E-01 -1.7751796871000E-01
    50  4.9000000000000E-01 -9.3524396644000E-01 -1.9244774274000E-01
    51  5.0000000000000E-01 -9.5120595964000E-01 -2.0726692585000E-01
    52  5.1000000000000E-01 -9.6683084595000E-01 -2.2191467869000E-01
    53  5.2000000000000E-01 -9.8210155313000E-01 -2.3632950389000E-01
    54  5.3000000000000E-01 -9.9700092501000E-01 -2.5044942160000E-01
    55  5.4000000000000E-01 -1.0115117565000E+00 -2.6421215997000E-01
    56  5.5000000000000E-01 -1.0256168400000E+00 -2.7755540673000E-01
    57  5.6000000000000E-01 -1.0392989894000E+00 -2.9041693591000E-01
    58  5.7000000000000E-01 -1.0525410964000E+00 -3.0273491179000E-01
    59  5.8000000000000E-01 -1.0653261488000E+00 -3.1444798214000E-01
    60  5.9000000000000E-01 -1.0776372931000E+00 -3.2549561172000E-01
    61  6.0000000000000E-01 -1.0894578498000E+00 -3.3581815395000E-01
    62  6.1000000000000E-01 -1.1007713753000E+00 -3.4535718122000E-01
    63  6.2000000000000E-01 -1.1115616868000E+00 -3.5405560260000E-01
    64  6.3000000000000E-01 -1.1218129016000E+00 -3.6185786582000E-01
    65  6.4000000000000E-01 -1.1315094928000E+00 -3.6871023818000E-01
    66  6.5000000000000E-01 -1.1406363087000E+00 -3.7456089624000E-01
    67  6.6000000000000E-01 -1.1491786146000E+00 -3.7936012818000E-01
    68  6.7000000000000E-01 -1.1571221495000E+00 -3.8306061515000E-01
    69  6.8000000000000E-01 -1.1644531432000E+00 -3.8561749713000E-01
    70  6.9000000000000E-01 -1.1711583574000E+00 -3.8698856679000E-01
    71  7.0000000000000E-01 -1.1772251219000E+00 -3.8713443131000E-01
    72  7.1000000000000E-01 -1.1826413842000E+00 -3.8601873892000E-01
    73  7.2000000000000E-01 -1.1873957259000E+00 -3.8360823333000E-01
    74  7.3000000000000E-01 -1.1914774019000E+00 -3.7987292179000E-01
    75  7.4000000000000E-01 -1.1948763728000E+00 -3.7478620370000E-01
    76  7.5000000000000E-01 -1.1975833340000E+00 -3.6832497942000E-01
    77  7.6000000000000E-01 -1.1995897475000E+00 -3.6046976863000E-01
    78  7.7000000000000E-01 -1.2008878775000E+00 -3.5120483897000E-01
    79  7.8000000000000E-01 -1.2014708053000E+00 -3.4051823770000E-01
    80  7.9000000000000E-01 -1.2013324597000E+00 -3.2840188730000E-01
    81  8.0000000000000E-01 -1.2004676406000E+00 -3.1485164831000E-01
    82  8.1000000000000E-01 -1.1988720414000E+00 -2.9986737006000E-01
    83  8.2000000000000E-01 -1.1965422697000E+00 -2.8345292908000E-01
    84  8.3000000000000E-01 -1.1934758659000E+00 -2.6561625509000E-01
    85  8.4000000000000E-01 -1.1896713204000E+00 -2.4636934425000E-01
    86  8.5000000000000E-01 -1.1851280887000E+00 -2.2572825977000E-01
    87  8.6000000000000E-01 -1.1798466051000E+00 -2.0371311967000E-01
    88  8.7000000000000E-01 -1.1738282934000E+00 -1.8034807172000E-01
    89  8.8000000000000E-01 -1.1670755770000E+00 -1.5566125553000E-01
    90  8.9000000000000E-01 -1.1595918858000E+00 -1.2968475193000E-01
    91  9.0000000000000E-01 -1.1513816620000E+00 -1.0245451957000E-01
    92  9.1000000000000E-01 -1.1424503634000E+00 -7.4010319090000E-02
    93  9.2000000000000E-01 -1.1328044644000E+00 -4.4395624875000E-02
    94  9.3000000000000E-01 -1.1224514554000E+00 -1.3657524801000E-02
    95  9.4000000000000E-01 -1.1113998374000E+00  1.8153395245000E-02
    96  9.5000000000000E-01 -1.0996591186000E+00  5.0983166511000E-02
    97  9.6000000000000E-01 -1.0872398188000E+00  8.4774563805000E-02
    98  9.7000000000000E-01 -1.0741534438000E+00  1.1946727511000E-01
    99  9.8000000000000E-01 -1.0604124803000E+00  1.5499804716000E-01
   100  9.9000000000000E-01 -1.0460303822000E+00  1.9130085123000E-01
   101  1.0000000000000E+00 -1.0310215553000E+00  2.2830705768000E-01
   102  1.0100000000000E+00 -1.0154013393000E+00  2.6594561567000E-01
   103  1.0200000000000E+00 -9.9918598466000E-01  3.0414319315000E-01
   104  1.0300000000000E+00 -9.8239265157000E-01  3.4282451668000E-01
   105  1.0400000000000E+00 -9.6503936158000E-01  3.8191246921000E-01
   106  1.0500000000000E+00 -9.4714498096000E-01  4.2132832890000E-01
   107  1.0600000000000E+00 -9.2872919387000E-01  4.6099198319000E-01
   108  1.0700000000000E+00 -9.0981247780000E-01  5.0082200919000E-01
   109  1.0800000000000E+00 -8.9041606996000E-01  5.4073625310000E-01
   110  1.0900000000000E+00 -8.7056192884000E-01  5.8065183993000E-01
   111  1.1000000000000E+00 -8.5027270442000E-01  6.2048539195000E-01
   112  1.1100000000000E+00 -8.2957171268000E-01  6.6015315830000E-01
   113  1.1200000000000E+00 -8.0848289425000E-01  6.9957139753000E-01
   114  1.1300000000000E+00 -7.8703074429000E-01  7.3865692920000E-01
   115  1.1400000000000E+00 -7.6524030737000E-01  7.7732687868000E-01
   116  1.1500000000000E+00 -7.4313715406000E-01  8.1549881880000E-01
   117  1.1600000000000E+00 -7.2074730269000E-01  8.5309142636000E-01
   118  1.1700000000000E+00 -6.9809713965000E-01  8.9002494292000E-01
   119  1.1800000000000E+00 -6.7521344330000E-01  9.2622074973000E-01
   120  1.1900000000000E+00 -6.5212340110000E-01  9.6160118969000E-01
   121  1.2000000000000E+00 -6.2885433555000E-01  9.9609162043000E-01
   122  1.2100000000000E+00 -6.0543383238000E-01  1.0296191026000E+00
   123  1.2200000000000E+00 -5.8188975043000E-01  1.0621123087000E+00
   124  1.2300000000000E+00 -5.5825000649000E-01  1.0935029612000E+00
   125  1.2400000000000E+00 -5.3454252439000E-01  1.1237258823000E+00
   126  1.2500000000000E+00 -5.1079540233000E-01  1.1527177997000E+00
   127  1.2600000000000E+00 -4.8703669532000E-01  1.1804187044000E+00
   128  1.2700000000000E+00 -4.6329421660000E-01  1.2067727591000E+00
   129  1.2800000000000E+00 -4.3959587926000E-01  1.2317261702000E+00
   130  1.2900000000000E+00 -4.1596937893000E-01  1.2552289995000E+00
   131  1.3000000000000E+00 -3.9244197822000E-01  1.2772360084000E+00
   132  1.3100000000000E+00 -3.6904099922000E-01  1.2977039824000E+00
   133  1.3200000000000E+00 -3.4579323996000E-01  1.3165946872000E+00
   134  1.3300000000000E+00 -3.2272499789000E-01  1.3338743647000E+00
   135  1.3400000000000E+00 -2.9986262241000E-01  1.3495111771000E+00
   136  1.3500000000000E+00 -2.7723144019000E-01  1.3634799607000E+00
   137  1.3600000000000E+00 -2.5485648632000E-01  1.3757586247000E+00
   138  1.3700000000000E+00 -2.3276255588000E-01  1.3863281364000E+00
   139  1.3800000000000E+00 -2.1097313739000E-01  1.3951764635000E+00
   140  1.3900000000000E+00 -1.8951176031000E-01  1.4022931673000E+00
   141  1.4000000000000E+00 -1.6840086171000E-01  1.4076737037000E+00
   142  1.4100000000000E+00 -1.4766204898000E-01  1.4113179712000E+00
   143  1.4200000000000E+00 -1.2731682211000E-01  1.4132280830000E+00
   144  1.4300000000000E+00 -1.0738482125000E-01  1.4134136593000E+00
   145  1.4400000000000E+00 -8.7885818667000E-02  1.4118854847000E+00
   146  1.4500000000000E+00 -6.8838051896000E-02  1.4086604875000E+00
   147  1.4600000000000E+00 -5.0258992749000E-02  1.4037590460000E+00
   148  1.4700000000000E+00 -3.2165551950000E-02  1.3972047569000E+00
   149  1.4800000000000E+00 -1.4572747494000E-02  1.3890270869000E+00
   150  1.4900000000000E+00  2.5040923232000E-03  1.3792565150000E+00
   151  1.5000000000000E+00  1.9052171445000E-02  1.3679302433000E+00
   152  1.5100000000000E+00  3.5058495770000E-02  1.3550865484000E+00
   153  1.5200000000000E+00  5.0511980250000E-02  1.3407687166000E+00
   154  1.5300000000000E+00  6.5402256311000E-02  1.3250224820000E+00
   155  1.5400000000000E+00  7.9720025728000E-02  1.3078968948000E+00
   156  1.5500000000000E+00  9.3457585014000E-02  1.2894442078000E+00
   157  1.5600000000000E+00  1.0660751874000E-01  1.2697189007000E+00
   158  1.5700000000000E+00  1.1916477485000E-01  1.2487787101000E+00
   159  1.5800000000000E+00  1.3112391986000E-01  1.2266831476000E+00
   160  1.5900000000000E+00  1.4248244240000E-01  1.2034943698000E+00
   161  1.6000000000000E+00  1.5323715194000E-01  1.1792764048000E+00
   162  1.6100000000000E+00  1.6338779552000E-01  1.1540948569000E+00
   163  1.6200000000000E+00  1.7293363307000E-01  1.1280174501000E+00
   164  1.6300000000000E+00  1.8187651277000E-01  1.1011124746000E+00
   165  1.6400000000000E+00  1.9021812489000E-01  1.0734503967000E+00
   166  1.6500000000000E+00  1.9796241312000E-01  1.0451014074000E+00
   167  1.6600000000000E+00  2.0511339247000E-01  1.0161377794000E+00
   168  1.6700000000000E+00  2.1167707552000E-01  9.8663073799000E-01
   169  1.6800000000000E+00  2.1765967332000E-01  9.5665348832000E-01
   170  1.6900000000000E+00  2.2306921230000E-01  9.2627733848000E-01
   171  1.7000000000000E+00  2.2791395492000E-01  8.9557563604000E-01
   172  1.7100000000000E+00  2.3220385084000E-01  8.6461873773000E-01
   173  1.7200000000000E+00  2.3594906093000E-01  8.3347944366000E-01
   174  1.7300000000000E+00  2.3916132491000E-01  8.0222604907000E-01
   175  1.7400000000000E+00  2.4185254846000E-01  7.7093022599000E-01
   176  1.7500000000000E+00  2.4403607856000E-01  7.3965703713000E-01
   177  1.7600000000000E+00  2.4572541971000E-01  7.0847655316000E-01
   178  1.7700000000000E+00  2.4693528712000E-01  6.7744939882000E-01
   179  1.7800000000000E+00  2.4768065303000E-01  6.4664365990000E-01
   180  1.7900000000000E+00  2.4797730840000E-01  6.1611475315000E-01
   181  1.8000000000000E+00  2.4784155997000E-01  5.8592716706000E-01
   182  1.8100000000000E+00  2.4728999275000E-01  5.5613176694000E-01
   183  1.8200000000000E+00  2.4633997640000E-01  5.2678717290000E-01
   184  1.8300000000000E+00  2.4500873418000E-01  4.9794048454000E-01
   185  1.8400000000000E+00  2.4331429734000E-01  4.6964276303000E-01
   186  1.8500000000000E+00  2.4127444537000E-01  4.4193757594000E-01
   187  1.8600000000000E+00  2.3890736663000E-01  4.1486697902000E-01
   188  1.8700000000000E+00  2.3623138073000E-01  3.8847130199000E-01
   189  1.8800000000000E+00  2.3326423437000E-01  3.6278227605000E-01
   190  1.8900000000000E+00  2.3002482660000E-01  3.3783721299000E-01
   191  1.9000000000000E+00  2.2652991811000E-01  3.1365712084000E-01
   192  1.9100000000000E+00  2.2279865502000E-01  2.9027428461000E-01
   193  1.9200000000000E+00  2.1884696104000E-01  2.6770205729000E-01
   194  1.9300000000000E+00  2.1469274144000E-01  2.4596147834000E-01
   195  1.9400000000000E+00  2.1035221022000E-01  2.2506402142000E-01
   196  1.9500000000000E+00  2.0584159001000E-01  2.0501912725000E-01
   197  1.9600000000000E+00  2.0117749297000E-01  1.8583640368000E-01
   198  1.9700000000000E+00  1.9637472089000E-01  1.6751634482000E-01
   199  1.9800000000000E+00  1.9145035212000E-01  1.5006643788000E-01
   200  1.9900000000000E+00  1.8641807673000E-01  1.3348078388000E-01
   201  2.0000000000000E+00  1.8129384427000E-01  1.1775945784000E-01
   202  2.0100000000000E+00  1.7609177070000E-01  1.0289583582000E-01
   203  2.0200000000000E+00  1.7082581573000E-01  8.8881337171000E-02
   204  2.0300000000000E+00  1.6551073828000E-01  7.5708450038000E-02
   205  2.0400000000000E+00  1.6015853669000E-01  6.3361877516000E-02
   206  2.0500000000000E+00  1.5478371381000E-01  5.1830578034000E-02
   207  2.0600000000000E+00  1.4939762443000E-01  4.1096586150000E-02
   208  2.0700000000000E+00  1.4401270041000E-01  3.1142638057000E-02
   209  2.0800000000000E+00  1.3864110525000E-01  2.1950364143000E-02
   210  2.0900000000000E+00  1.3329272124000E-01  1.3497393195000E-02
   211  2.1000000000000E+00  1.2797996221000E-01  5.7632154762000E-03
   212  2.1100000000000E+00  1.2271147794000E-01 -1.2766780756000E-03
   213  2.1200000000000E+00  1.1749744674000E-01 -7.6466247462000E-03
   214  2.1300000000000E+00  1.1234754457000E-01 -1.3371751322000E-02
   215  2.1400000000000E+00  1.0726912111000E-01 -1.8478697040000E-02
   216  2.1500000000000E+00  1.0227199262000E-01 -2.2994654762000E-02
   217  2.1600000000000E+00  9.7362419184000E-02 -2.6946867814000E-02
   218  2.1700000000000E+00  9.2547665392000E-02 -3.0363642582000E-02
   219  2.1800000000000E+00  8.7835241889000E-02 -3.3273912491000E-02
   220  2.1900000000000E+00  8.3229685555000E-02 -3.5705174745000E-02
   221  2.2000000000000E+00  7.8737828579000E-02 -3.7687670643000E-02
   222  2.2100000000000E+00  7.4364033863000E-02 -3.9249213490000E-02
   223  2.2200000000000E+00  7.0112176988000E-02 -4.0417625187000E-02
   224  2.2300000000000E+00  6.5987965577000E-02 -4.1224198242000E-02
   225  2.2400000000000E+00  6.1993084313000E-02 -4.1693690608000E-02
   226  2.2500000000000E+00  5.8131155463000E-02 -4.1855146902000E-02
   227  2.2600000000000E+00  5.4405152778000E-02 -4.1736637408000E-02
   228  2.2700000000000E+00  5.0815927595000E-02 -4.1361812866000E-02
   229  2.2800000000000E+00  4.7366157002000E-02 -4.0759705679000E-02
   230  2.2900000000000E+00  4.4056367412000E-02 -3.9953523626000E-02
   231  2.3000000000000E+00  4.0886641466000E-02 -3.8965706895000E-02
   232  2.3100000000000E+00  3.7858589198000E-02 -3.7824540624000E-02
   233  2.3200000000000E+00  3.4970703080000E-02 -3.6547442434000E-02
   234  2.3300000000000E+00  3.2222514350000E-02 -3.5156385672000E-02
   235  2.3400000000000E+00  2.9613853529000E-02 -3.3675242516000E-02
   236  2.3500000000000E+00  2.7142277027000E-02 -3.2118234245000E-02
   237  2.3600000000000E+00  2.4806487595000E-02 -3.0505764085000E-02
   238  2.3700000000000E+00  2.2604672867000E-02 -2.8856023580000E-02
   239  2.3800000000000E+00  2.0533759676000E-02 -2.7180810338000E-02
   240  2.3900000000000E+00  1.8591552357000E-02 -2.5498176214000E-02
   241  2.4000000000000E+00  1.6774988258000E-02 -2.3820701122000E-02
   242  2.4100000000000E+00  1.5080444683000E-02 -2.2157713329000E-02
   243  2.4200000000000E+00  1.3504866482000E-02 -2.0524453984000E-02
   244  2.4300000000000E+00  1.2044335588000E-02 -1.8928398859000E-02
   245  2.4400000000000E+00  1.0694765981000E-02 -1.7376359249000E-02
   246  2.4500000000000E+00  9.4523231708000E-03 -1.5880426426000E-02
   247  2.4600000000000E+00  8.3126016601000E-03 -1.4443780280000E-02
   248  2.4700000000000E+00  7.2711578067000E-03 -1.3070712668000E-02
   249  2.4800000000000E+00  6.3234977554000E-03 -1.1769984559000E-02
   250  2.4900000000000E+00  5.4650497001000E-03 -1.0541453139000E-02
   251  2.5000000000000E+00  4.6911449715000E-03 -9.3869775451000E-03
   252  2.5100000000000E+00  3.9967867293000E-03 -8.3119870534000E-03
   253  2.5200000000000E+00  3.3774970198000E-03 -7.3140293487000E-03
   254  2.5300000000000E+00  2.8285444054000E-03 -6.3927404204000E-03
   255  2.5400000000000E+00  2.3446181746000E-03 -5.5504023371000E-03
   256  2.5500000000000E+00  1.9215228826000E-03 -4.7831951730000E-03
   257  2.5600000000000E+00  1.5546553515000E-03 -4.0888838354000E-03
   258  2.5700000000000E+00  1.2386098658000E-03 -3.4669722784000E-03
   259  2.5800000000000E+00  9.6958276941000E-04 -2.9130470649000E-03
   260  2.5900000000000E+00  7.4331486764000E-04 -2.4235001271000E-03
   261  2.6000000000000E+00  5.5455142413000E-04 -1.9956040749000E-03
   262  2.6100000000000E+00  3.9990638703000E-04 -1.6248817133000E-03
   263  2.6200000000000E+00  2.7569747739000E-04 -1.3069812679000E-03
   264  2.6300000000000E+00  1.7709010413000E-04 -1.0376531481000E-03
   265  2.6400000000000E+00  1.0106089982000E-04 -8.1259689612000E-04
   266  2.6500000000000E+00  4.4742891700000E-05 -6.2744064088000E-04
   267  2.6600000000000E+00  4.0060673494000E-06 -4.7725211440000E-04
   268  2.6700000000000E+00 -2.3932015755000E-05 -3.5786343704000E-04
   269  2.6800000000000E+00 -4.0896365528000E-05 -2.6563765265000E-04
   270  2.6900000000000E+00 -5.0027693942000E-05 -1.9586944804000E-04
   271  2.7000000000000E+00 -5.4026693517000E-05 -1.4426769308000E-04
   272  2.7100000000000E+00 -5.3484968095000E-05 -1.0862532981000E-04
   273  2.7200000000000E+00 -5.0293437125000E-05 -8.5345314357000E-05
   274  2.7300000000000E+00 -4.7220241918000E-05 -6.9697359130000E-05
   275  2.7400000000000E+00 -4.3496789007000E-05 -6.1422998982000E-05
   276  2.7500000000000E+00 -3.9802211919000E-05 -5.8406068720000E-05
   277  2.7600000000000E+00 -3.9539809273000E-05 -5.8788887486000E-05
   278  2.7700000000000E+00 -3.9547872882000E-05 -5.9978181058000E-05
   279  2.7800000000000E+00 -3.8208825412000E-05 -5.9512878571000E-05
   280  2.7900000000000E+00 -3.1179184785000E-05 -4.9316343520000E-05
   281  2.8000000000000E+00 -1.9664622003000E-05 -3.1246832457000E-05
   282  2.8100000000000E+00 -7.9598460853000E-06 -1.2691104277000E-05
   283  2.8200000000000E+00  7.7306129415000E-07  1.2185919250000E-06
   284  2.8300000000000E+00  2.4271611838000E-06  3.8259825469000E-06
   285  2.8400000000000E+00  1.9436992976000E-06  3.0638919404000E-06
   286  2.8500000000000E+00  2.9496452297000E-07  4.6495845615000E-07
   287  2.8600000000000E+00  0.0000000000000E+00  0.0000000000000E+00
   288  2.8700000000000E+00  0.0000000000000E+00  0.0000000000000E+00
   289  2.8800000000000E+00  0.0000000000000E+00  0.0000000000000E+00
   290  2.8900000000000E+00  0.0000000000000E+00  0.0000000000000E+00
   291  2.9000000000000E+00  0.0000000000000E+00  0.0000000000000E+00
   292  2.9100000000000E+00  0.0000000000000E+00  0.0000000000000E+00
   293  2.9200000000000E+00  0.0000000000000E+00  0.0000000000000E+00
   294  2.9300000000000E+00  0.0000000000000E+00  0.0000000000000E+00
   295  2.9400000000000E+00  0.0000000000000E+00  0.0000000000000E+00
   296  2.9500000000000E+00  0.0000000000000E+00  0.0000000000000E+00
   297  2.9600000000000E+00  0.0000000000000E+00  0.0000000000000E+00
   298  2.9700000000000E+00  0.0000000000000E+00  0.0000000000000E+00
   299  2.9800000000000E+00  0.0000000000000E+00  0.0000000000000E+00
   300  2.9900000000000E+00  0.0000000000000E+00  0.0000000000000E+00
   301  3.0000000000000E+00  0.0000000000000E+00  0.0000000000000E+00
   302  3.0100000000000E+00  0.0000000000000E+00  0.0000000000000E+00
   303  3.0200000000000E+00  0.0000000000000E+00  0.0000000000000E+00
   304  3.0300000000000E+00  0.0000000000000E+00  0.0000000000000E+00
   305  3.0400000000000E+00  0.0000000000000E+00  0.0000000000000E+00
   306  3.0500000000000E+00  0.0000000000000E+00  0.0000000000000E+00
   307  3.0600000000000E+00  0.0000000000000E+00  0.0000000000000E+00
   308  3.0700000000000E+00  0.0000000000000E+00  0.0000000000000E+00
   309  3.0800000000000E+00  0.0000000000000E+00  0.0000000000000E+00
   310  3.0900000000000E+00  0.0000000000000E+00  0.0000000000000E+00
   311  3.1000000000000E+00  0.0000000000000E+00  0.0000000000000E+00
   312  3.1100000000000E+00  0.0000000000000E+00  0.0000000000000E+00
   313  3.1200000000000E+00  0.0000000000000E+00  0.0000000000000E+00
   314  3.1300000000000E+00  0.0000000000000E+00  0.0000000000000E+00
   315  3.1400000000000E+00  0.0000000000000E+00  0.0000000000000E+00
   316  3.1500000000000E+00  0.0000000000000E+00  0.0000000000000E+00
   317  3.1600000000000E+00  0.0000000000000E+00  0.0000000000000E+00
   318  3.1700000000000E+00  0.0000000000000E+00  0.0000000000000E+00
   319  3.1800000000000E+00  0.0000000000000E+00  0.0000000000000E+00
   320  3.1900000000000E+00  0.0000000000000E+00  0.0000000000000E+00
   321  3.2000000000000E+00  0.0000000000000E+00  0.0000000000000E+00
   322  3.2100000000000E+00  0.0000000000000E+00  0.0000000000000E+00
   323  3.2200000000000E+00  0.0000000000000E+00  0.0000000000000E+00
   324  3.2300000000000E+00  0.0000000000000E+00  0.0000000000000E+00
   325  3.2400000000000E+00  0.0000000000000E+00  0.0000000000000E+00
   326  3.2500000000000E+00  0.0000000000000E+00  0.0000000000000E+00
   327  3.2600000000000E+00  0.0000000000000E+00  0.0000000000000E+00
   328  3.2700000000000E+00  0.0000000000000E+00  0.0000000000000E+00
   329  3.2800000000000E+00  0.0000000000000E+00  0.0000000000000E+00
   330  3.2900000000000E+00  0.0000000000000E+00  0.0000000000000E+00
   331  3.3000000000000E+00  0.0000000000000E+00  0.0000000000000E+00
   332  3.3100000000000E+00  0.0000000000000E+00  0.0000000000000E+00
   333  3.3200000000000E+00  0.0000000000000E+00  0.0000000000000E+00
   334  3.3300000000000E+00  0.0000000000000E+00  0.0000000000000E+00
   335  3.3400000000000E+00  0.0000000000000E+00  0.0000000000000E+00
   336  3.3500000000000E+00  0.0000000000000E+00  0.0000000000000E+00
   337  3.3600000000000E+00  0.0000000000000E+00  0.0000000000000E+00
   338  3.3700000000000E+00  0.0000000000000E+00  0.0000000000000E+00
   339  3.3800000000000E+00  0.0000000000000E+00  0.0000000000000E+00
   340  3.3900000000000E+00  0.0000000000000E+00  0.0000000000000E+00
   341  3.4000000000000E+00  0.0000000000000E+00  0.0000000000000E+00
   342  3.4100000000000E+00  0.0000000000000E+00  0.0000000000000E+00
   343  3.4200000000000E+00  0.0000000000000E+00  0.0000000000000E+00
   344  3.4300000000000E+00  0.0000000000000E+00  0.0000000000000E+00
   345  3.4400000000000E+00  0.0000000000000E+00  0.0000000000000E+00
   346  3.4500000000000E+00  0.0000000000000E+00  0.0000000000000E+00
   347  3.4600000000000E+00  0.0000000000000E+00  0.0000000000000E+00
   348  3.4700000000000E+00  0.0000000000000E+00  0.0000000000000E+00
   349  3.4800000000000E+00  0.0000000000000E+00  0.0000000000000E+00
   350  3.4900000000000E+00  0.0000000000000E+00  0.0000000000000E+00
   351  3.5000000000000E+00  0.0000000000000E+00  0.0000000000000E+00
   352  3.5100000000000E+00  0.0000000000000E+00  0.0000000000000E+00
   353  3.5200000000000E+00  0.0000000000000E+00  0.0000000000000E+00
   354  3.5300000000000E+00  0.0000000000000E+00  0.0000000000000E+00
   355  3.5400000000000E+00  0.0000000000000E+00  0.0000000000000E+00
   356  3.5500000000000E+00  0.0000000000000E+00  0.0000000000000E+00
   357  3.5600000000000E+00  0.0000000000000E+00  0.0000000000000E+00
   358  3.5700000000000E+00  0.0000000000000E+00  0.0000000000000E+00
   359  3.5800000000000E+00  0.0000000000000E+00  0.0000000000000E+00
   360  3.5900000000000E+00  0.0000000000000E+00  0.0000000000000E+00
   361  3.6000000000000E+00  0.0000000000000E+00  0.0000000000000E+00
   362  3.6100000000000E+00  0.0000000000000E+00  0.0000000000000E+00
   363  3.6200000000000E+00  0.0000000000000E+00  0.0000000000000E+00
   364  3.6300000000000E+00  0.0000000000000E+00  0.0000000000000E+00
   365  3.6400000000000E+00  0.0000000000000E+00  0.0000000000000E+00
   366  3.6500000000000E+00  0.0000000000000E+00  0.0000000000000E+00
   367  3.6600000000000E+00  0.0000000000000E+00  0.0000000000000E+00
   368  3.6700000000000E+00  0.0000000000000E+00  0.0000000000000E+00
   369  3.6800000000000E+00  0.0000000000000E+00  0.0000000000000E+00
   370  3.6900000000000E+00  0.0000000000000E+00  0.0000000000000E+00
   371  3.7000000000000E+00  0.0000000000000E+00  0.0000000000000E+00
   372  3.7100000000000E+00  0.0000000000000E+00  0.0000000000000E+00
   373  3.7200000000000E+00  0.0000000000000E+00  0.0000000000000E+00
   374  3.7300000000000E+00  0.0000000000000E+00  0.0000000000000E+00
   375  3.7400000000000E+00  0.0000000000000E+00  0.0000000000000E+00
   376  3.7500000000000E+00  0.0000000000000E+00  0.0000000000000E+00
   377  3.7600000000000E+00  0.0000000000000E+00  0.0000000000000E+00
   378  3.7700000000000E+00  0.0000000000000E+00  0.0000000000000E+00
   379  3.7800000000000E+00  0.0000000000000E+00  0.0000000000000E+00
   380  3.7900000000000E+00  0.0000000000000E+00  0.0000000000000E+00
   381  3.8000000000000E+00  0.0000000000000E+00  0.0000000000000E+00
   382  3.8100000000000E+00  0.0000000000000E+00  0.0000000000000E+00
   383  3.8200000000000E+00  0.0000000000000E+00  0.0000000000000E+00
   384  3.8300000000000E+00  0.0000000000000E+00  0.0000000000000E+00
   385  3.8400000000000E+00  0.0000000000000E+00  0.0000000000000E+00
   386  3.8500000000000E+00  0.0000000000000E+00  0.0000000000000E+00
   387  3.8600000000000E+00  0.0000000000000E+00  0.0000000000000E+00
   388  3.8700000000000E+00  0.0000000000000E+00  0.0000000000000E+00
   389  3.8800000000000E+00  0.0000000000000E+00  0.0000000000000E+00
   390  3.8900000000000E+00  0.0000000000000E+00  0.0000000000000E+00
   391  3.9000000000000E+00  0.0000000000000E+00  0.0000000000000E+00
   392  3.9100000000000E+00  0.0000000000000E+00  0.0000000000000E+00
   393  3.9200000000000E+00  0.0000000000000E+00  0.0000000000000E+00
   394  3.9300000000000E+00  0.0000000000000E+00  0.0000000000000E+00
   395  3.9400000000000E+00  0.0000000000000E+00  0.0000000000000E+00
   396  3.9500000000000E+00  0.0000000000000E+00  0.0000000000000E+00
   397  3.9600000000000E+00  0.0000000000000E+00  0.0000000000000E+00
   398  3.9700000000000E+00  0.0000000000000E+00  0.0000000000000E+00
   399  3.9800000000000E+00  0.0000000000000E+00  0.0000000000000E+00
   400  3.9900000000000E+00  0.0000000000000E+00  0.0000000000000E+00
   401  4.0000000000000E+00  0.0000000000000E+00  0.0000000000000E+00
   402  4.0100000000000E+00  0.0000000000000E+00  0.0000000000000E+00
   403  4.0200000000000E+00  0.0000000000000E+00  0.0000000000000E+00
   404  4.0300000000000E+00  0.0000000000000E+00  0.0000000000000E+00
   405  4.0400000000000E+00  0.0000000000000E+00  0.0000000000000E+00
   406  4.0500000000000E+00  0.0000000000000E+00  0.0000000000000E+00
   407  4.0600000000000E+00  0.0000000000000E+00  0.0000000000000E+00
   408  4.0700000000000E+00  0.0000000000000E+00  0.0000000000000E+00
   409  4.0800000000000E+00  0.0000000000000E+00  0.0000000000000E+00
   410  4.0900000000000E+00  0.0000000000000E+00  0.0000000000000E+00
   411  4.1000000000000E+00  0.0000000000000E+00  0.0000000000000E+00
   412  4.1100000000000E+00  0.0000000000000E+00  0.0000000000000E+00
   413  4.1200000000000E+00  0.0000000000000E+00  0.0000000000000E+00
   414  4.1300000000000E+00  0.0000000000000E+00  0.0000000000000E+00
   415  4.1400000000000E+00  0.0000000000000E+00  0.0000000000000E+00
   416  4.1500000000000E+00  0.0000000000000E+00  0.0000000000000E+00
   417  4.1600000000000E+00  0.0000000000000E+00  0.0000000000000E+00
   418  4.1700000000000E+00  0.0000000000000E+00  0.0000000000000E+00
   419  4.1800000000000E+00  0.0000000000000E+00  0.0000000000000E+00
   420  4.1900000000000E+00  0.0000000000000E+00  0.0000000000000E+00
   421  4.2000000000000E+00  0.0000000000000E+00  0.0000000000000E+00
   422  4.2100000000000E+00  0.0000000000000E+00  0.0000000000000E+00
   423  4.2200000000000E+00  0.0000000000000E+00  0.0000000000000E+00