Sb   ONCVPSP-2.1.1   r_core=    2.48127 3.00305 3.54887
    51.0000   15.0000   150415   zatom,zion,pspd
    8   11   2   4   600   0   pspcod,pspxc,lmax,lloc,mmax,r2well
    5.99000000   0.00000000   0.00000000   rchrg fchrg qchrg
    2   2   2   0   0   nproj
    1   1   extension_switch
       0                         6.5184287340000E+00  1.2007932230000E+00
     1  0.0000000000000E+00  0.0000000000000E+00  0.0000000000000E+00
     2  1.0000000000000E-02 -2.4649617857000E-02 -3.5191404984000E-03
     3  2.0000000000000E-02 -4.9289710900000E-02 -7.0753058604000E-03
     4  3.0000000000000E-02 -7.3910754777000E-02 -1.0705289942000E-02
     5  4.0000000000000E-02 -9.8503226061000E-02 -1.4445425615000E-02
     6  5.0000000000000E-02 -1.2305760273000E-01 -1.8331356842000E-02
     7  6.0000000000000E-02 -1.4756436467000E-01 -2.2397813833000E-02
     8  7.0000000000000E-02 -1.7201399416000E-01 -2.6678392266000E-02
     9  8.0000000000000E-02 -1.9639697646000E-01 -3.1205337588000E-02
    10  9.0000000000000E-02 -2.2070380034000E-01 -3.6009335334000E-02
    11  1.0000000000000E-01 -2.4492495871000E-01 -4.1119308436000E-02
    12  1.1000000000000E-01 -2.6905094926000E-01 -4.6562222403000E-02
    13  1.2000000000000E-01 -2.9307227512000E-01 -5.2362899288000E-02
    14  1.3000000000000E-01 -3.1697944561000E-01 -5.8543841264000E-02
    15  1.4000000000000E-01 -3.4076297696000E-01 -6.5125064602000E-02
    16  1.5000000000000E-01 -3.6441339312000E-01 -7.2123944895000E-02
    17  1.6000000000000E-01 -3.8792122660000E-01 -7.9555074069000E-02
    18  1.7000000000000E-01 -4.1127701933000E-01 -8.7430130101000E-02
    19  1.8000000000000E-01 -4.3447132354000E-01 -9.5757759792000E-02
    20  1.9000000000000E-01 -4.5749470270000E-01 -1.0454347544000E-01
    21  2.0000000000000E-01 -4.8033773245000E-01 -1.1378956548000E-01
    22  2.1000000000000E-01 -5.0299100155000E-01 -1.2349502026000E-01
    23  2.2000000000000E-01 -5.2544511287000E-01 -1.3365547246000E-01
    24  2.3000000000000E-01 -5.4769068436000E-01 -1.4426315313000E-01
    25  2.4000000000000E-01 -5.6971834997000E-01 -1.5530686334000E-01
    26  2.5000000000000E-01 -5.9151876067000E-01 -1.6677196183000E-01
    27  2.6000000000000E-01 -6.1308258535000E-01 -1.7864036826000E-01
    28  2.7000000000000E-01 -6.3440051175000E-01 -1.9089058299000E-01
    29  2.8000000000000E-01 -6.5546324733000E-01 -2.0349772244000E-01
    30  2.9000000000000E-01 -6.7626152014000E-01 -2.1643357067000E-01
    31  3.0000000000000E-01 -6.9678607961000E-01 -2.2966664668000E-01
    32  3.1000000000000E-01 -7.1702769736000E-01 -2.4316228733000E-01
    33  3.2000000000000E-01 -7.3697716788000E-01 -2.5688274568000E-01
    34  3.3000000000000E-01 -7.5662530922000E-01 -2.7078730409000E-01
    35  3.4000000000000E-01 -7.7596296363000E-01 -2.8483240163000E-01
    36  3.5000000000000E-01 -7.9498099816000E-01 -2.9897177731000E-01
    37  3.6000000000000E-01 -8.1367030521000E-01 -3.1315662369000E-01
    38  3.7000000000000E-01 -8.3202180303000E-01 -3.2733575648000E-01
    39  3.8000000000000E-01 -8.5002643630000E-01 -3.4145579626000E-01
    40  3.9000000000000E-01 -8.6767517654000E-01 -3.5546135907000E-01
    41  4.0000000000000E-01 -8.8495902269000E-01 -3.6929526056000E-01
    42  4.1000000000000E-01 -9.0186900162000E-01 -3.8289872879000E-01
    43  4.2000000000000E-01 -9.1839616872000E-01 -3.9621162987000E-01
    44  4.3000000000000E-01 -9.3453160858000E-01 -4.0917269614000E-01
    45  4.4000000000000E-01 -9.5026643567000E-01 -4.2171976558000E-01
    46  4.5000000000000E-01 -9.6559179531000E-01 -4.3379002498000E-01
    47  4.6000000000000E-01 -9.8049886467000E-01 -4.4532026597000E-01
    48  4.7000000000000E-01 -9.9497885402000E-01 -4.5624713632000E-01
    49  4.8000000000000E-01 -1.0090230082000E+00 -4.6650739973000E-01
    50  4.9000000000000E-01 -1.0226226085000E+00 -4.7603819648000E-01
    51  5.0000000000000E-01 -1.0357689742000E+00 -4.8477729153000E-01
    52  5.1000000000000E-01 -1.0484534660000E+00 -4.9266337554000E-01
    53  5.2000000000000E-01 -1.0606674879000E+00 -4.9963629474000E-01
    54  5.3000000000000E-01 -1.0724024909000E+00 -5.0563729015000E-01
    55  5.4000000000000E-01 -1.0836499772000E+00 -5.1060933346000E-01
    56  5.5000000000000E-01 -1.0944015036000E+00 -5.1449728194000E-01
    57  5.6000000000000E-01 -1.1046486879000E+00 -5.1724820590000E-01
    58  5.7000000000000E-01 -1.1143832130000E+00 -5.1881157463000E-01
    59  5.8000000000000E-01 -1.1235968350000E+00 -5.1913953590000E-01
    60  5.9000000000000E-01 -1.1322813885000E+00 -5.1818708842000E-01
    61  6.0000000000000E-01 -1.1404287970000E+00 -5.1591238465000E-01
    62  6.1000000000000E-01 -1.1480310785000E+00 -5.1227679559000E-01
    63  6.2000000000000E-01 -1.1550803593000E+00 -5.0724529748000E-01
    64  6.3000000000000E-01 -1.1615688814000E+00 -5.0078649110000E-01
    65  6.4000000000000E-01 -1.1674890151000E+00 -4.9287281877000E-01
    66  6.5000000000000E-01 -1.1728332742000E+00 -4.8348080856000E-01
    67  6.6000000000000E-01 -1.1775943268000E+00 -4.7259110678000E-01
    68  6.7000000000000E-01 -1.1817650097000E+00 -4.6018860411000E-01
    69  6.8000000000000E-01 -1.1853383496000E+00 -4.4626268290000E-01
    70  6.9000000000000E-01 -1.1883075760000E+00 -4.3080719044000E-01
    71  7.0000000000000E-01 -1.1906661403000E+00 -4.1382055101000E-01
    72  7.1000000000000E-01 -1.1924077342000E+00 -3.9530581636000E-01
    73  7.2000000000000E-01 -1.1935263136000E+00 -3.7527076343000E-01
    74  7.3000000000000E-01 -1.1940161199000E+00 -3.5372790831000E-01
    75  7.4000000000000E-01 -1.1938717010000E+00 -3.3069449019000E-01
    76  7.5000000000000E-01 -1.1930879358000E+00 -3.0619248348000E-01
    77  7.6000000000000E-01 -1.1916600600000E+00 -2.8024857617000E-01
    78  7.7000000000000E-01 -1.1895836917000E+00 -2.5289413030000E-01
    79  7.8000000000000E-01 -1.1868548586000E+00 -2.2416512475000E-01
    80  7.9000000000000E-01 -1.1834700238000E+00 -1.9410207256000E-01
    81  8.0000000000000E-01 -1.1794261202000E+00 -1.6274995415000E-01
    82  8.1000000000000E-01 -1.1747205752000E+00 -1.3015808312000E-01
    83  8.2000000000000E-01 -1.1693513412000E+00 -9.6379986096000E-02
    84  8.3000000000000E-01 -1.1633169264000E+00 -6.1473263408000E-02
    85  8.4000000000000E-01 -1.1566164258000E+00 -2.5499432006000E-02
    86  8.5000000000000E-01 -1.1492495525000E+00  1.1476246590000E-02
    87  8.6000000000000E-01 -1.1412166684000E+00  4.9384952742000E-02
    88  8.7000000000000E-01 -1.1325188158000E+00  8.8154508817000E-02
    89  8.8000000000000E-01 -1.1231577483000E+00  1.2770959221000E-01
    90  8.9000000000000E-01 -1.1131359616000E+00  1.6797196048000E-01
    91  9.0000000000000E-01 -1.1024567216000E+00  2.0886068348000E-01
    92  9.1000000000000E-01 -1.0911240934000E+00  2.5029238297000E-01
    93  9.2000000000000E-01 -1.0791429807000E+00  2.9218152160000E-01
    94  9.3000000000000E-01 -1.0665191413000E+00  3.3444063792000E-01
    95  9.4000000000000E-01 -1.0532592172000E+00  3.7698062738000E-01
    96  9.5000000000000E-01 -1.0393707604000E+00  4.1971102102000E-01
    97  9.6000000000000E-01 -1.0248622551000E+00  4.6254026925000E-01
    98  9.7000000000000E-01 -1.0097431404000E+00  5.0537602942000E-01
    99  9.8000000000000E-01 -9.9402382860000E-01  5.4812545575000E-01
   100  9.9000000000000E-01 -9.7771571938000E-01  5.9069546490000E-01
   101  1.0000000000000E+00 -9.6083120720000E-01  6.3299296594000E-01
   102  1.0100000000000E+00 -9.4338374037000E-01  6.7492547309000E-01
   103  1.0200000000000E+00 -9.2538777916000E-01  7.1640107470000E-01
   104  1.0300000000000E+00 -9.0685881915000E-01  7.5732882024000E-01
   105  1.0400000000000E+00 -8.8781339453000E-01  7.9761900104000E-01
   106  1.0500000000000E+00 -8.6826906454000E-01  8.3718327738000E-01
   107  1.0600000000000E+00 -8.4824444095000E-01  8.7593521233000E-01
   108  1.0700000000000E+00 -8.2775918691000E-01  9.1379068451000E-01
   109  1.0800000000000E+00 -8.0683396974000E-01  9.5066775504000E-01
   110  1.0900000000000E+00 -7.8549046242000E-01  9.8648705357000E-01
   111  1.1000000000000E+00 -7.6375130686000E-01  1.0211716068000E+00
   112  1.1100000000000E+00 -7.4164016234000E-01  1.0546482389000E+00
   113  1.1200000000000E+00 -7.1918161434000E-01  1.0868469015000E+00
   114  1.1300000000000E+00 -6.9640115457000E-01  1.1177009232000E+00
   115  1.1400000000000E+00 -6.7332514962000E-01  1.1471467749000E+00
   116  1.1500000000000E+00 -6.4998083756000E-01  1.1751256817000E+00
   117  1.1600000000000E+00 -6.2639624262000E-01  1.2015828062000E+00
   118  1.1700000000000E+00 -6.0260014068000E-01  1.2264672215000E+00
   119  1.1800000000000E+00 -5.7862204487000E-01  1.2497316797000E+00
   120  1.1900000000000E+00 -5.5449208972000E-01  1.2713349280000E+00
   121  1.2000000000000E+00 -5.3024100463000E-01  1.2912395377000E+00
   122  1.2100000000000E+00 -5.0590010857000E-01  1.3094120161000E+00
   123  1.2200000000000E+00 -4.8150114942000E-01  1.3258246274000E+00
   124  1.2300000000000E+00 -4.5707624144000E-01  1.3404544880000E+00
   125  1.2400000000000E+00 -4.3265792083000E-01  1.3532826314000E+00
   126  1.2500000000000E+00 -4.0827896726000E-01  1.3642954318000E+00
   127  1.2600000000000E+00 -3.8397221446000E-01  1.3734848235000E+00
   128  1.2700000000000E+00 -3.5977076448000E-01  1.3808464485000E+00
   129  1.2800000000000E+00 -3.3570772297000E-01  1.3863811927000E+00
   130  1.2900000000000E+00 -3.1181591777000E-01  1.3900955334000E+00
   131  1.3000000000000E+00 -2.8812832841000E-01  1.3919993622000E+00
   132  1.3100000000000E+00 -2.6467755622000E-01  1.3921080216000E+00
   133  1.3200000000000E+00 -2.4149567067000E-01  1.3904418067000E+00
   134  1.3300000000000E+00 -2.1861483256000E-01  1.3870241480000E+00
   135  1.3400000000000E+00 -1.9606618534000E-01  1.3818842535000E+00
   136  1.3500000000000E+00 -1.7388034206000E-01  1.3750550725000E+00
   137  1.3600000000000E+00 -1.5208784952000E-01  1.3665727852000E+00
   138  1.3700000000000E+00 -1.3071744928000E-01  1.3564790752000E+00
   139  1.3800000000000E+00 -1.0979782715000E-01  1.3448180947000E+00
   140  1.3900000000000E+00 -8.9356520110000E-02  1.3316380808000E+00
   141  1.4000000000000E+00 -6.9419509752000E-02  1.3169908418000E+00
   142  1.4100000000000E+00 -5.0012869562000E-02  1.3009307133000E+00
   143  1.4200000000000E+00 -3.1159954608000E-02  1.2835158296000E+00
   144  1.4300000000000E+00 -1.2883945331000E-02  1.2648064770000E+00
   145  1.4400000000000E+00  4.7936370268000E-03  1.2448658289000E+00
   146  1.4500000000000E+00  2.1853239136000E-02  1.2237591020000E+00
   147  1.4600000000000E+00  3.8275392683000E-02  1.2015540199000E+00
   148  1.4700000000000E+00  5.4044150774000E-02  1.1783195318000E+00
   149  1.4800000000000E+00  6.9143253553000E-02  1.1541269060000E+00
   150  1.4900000000000E+00  8.3559573437000E-02  1.1290481570000E+00
   151  1.5000000000000E+00  9.7280885548000E-02  1.1031567044000E+00
   152  1.5100000000000E+00  1.1029676017000E-01  1.0765271053000E+00
   153  1.5200000000000E+00  1.2259926232000E-01  1.0492335684000E+00
   154  1.5300000000000E+00  1.3418083800000E-01  1.0213525354000E+00
   155  1.5400000000000E+00  1.4503784318000E-01  9.9295780920000E-01
   156  1.5500000000000E+00  1.5516590572000E-01  9.6412680041000E-01
   157  1.5600000000000E+00  1.6456530064000E-01  9.3493231741000E-01
   158  1.5700000000000E+00  1.7323563041000E-01  9.0545073210000E-01
   159  1.5800000000000E+00  1.8118041393000E-01  8.7575401762000E-01
   160  1.5900000000000E+00  1.8840339777000E-01  8.4591611713000E-01
   161  1.6000000000000E+00  1.9491134919000E-01  8.1600741306000E-01
   162  1.6100000000000E+00  2.0071199601000E-01  7.8609845060000E-01
   163  1.6200000000000E+00  2.0581533303000E-01  7.5625722012000E-01
   164  1.6300000000000E+00  2.1023282028000E-01  7.2655004026000E-01
   165  1.6400000000000E+00  2.1397761541000E-01  6.9704167317000E-01
   166  1.6500000000000E+00  2.1706459232000E-01  6.6779352339000E-01
   167  1.6600000000000E+00  2.1950994770000E-01  6.3886626714000E-01
   168  1.6700000000000E+00  2.2133159750000E-01  6.1031584526000E-01
   169  1.6800000000000E+00  2.2254858177000E-01  5.8219798081000E-01
   170  1.6900000000000E+00  2.2318144920000E-01  5.5456273509000E-01
   171  1.7000000000000E+00  2.2325180405000E-01  5.2746001068000E-01
   172  1.7100000000000E+00  2.2278239799000E-01  5.0093370208000E-01
   173  1.7200000000000E+00  2.2179702558000E-01  4.7502703169000E-01
   174  1.7300000000000E+00  2.2032021059000E-01  4.4977756128000E-01
   175  1.7400000000000E+00  2.1837745705000E-01  4.2522098870000E-01
   176  1.7500000000000E+00  2.1599465034000E-01  4.0138848663000E-01
   177  1.7600000000000E+00  2.1319840435000E-01  3.7830741008000E-01
   178  1.7700000000000E+00  2.1001559787000E-01  3.5600257652000E-01
   179  1.7800000000000E+00  2.0647322684000E-01  3.3449222333000E-01
   180  1.7900000000000E+00  2.0259885626000E-01  3.1379490703000E-01
   181  1.8000000000000E+00  1.9841900636000E-01  2.9391904255000E-01
   182  1.8100000000000E+00  1.9396169099000E-01  2.7487703769000E-01
   183  1.8200000000000E+00  1.8925197849000E-01  2.5666688231000E-01
   184  1.8300000000000E+00  1.8431812330000E-01  2.3929479771000E-01
   185  1.8400000000000E+00  1.7918317849000E-01  2.2274920398000E-01
   186  1.8500000000000E+00  1.7387399450000E-01  2.0702620983000E-01
   187  1.8600000000000E+00  1.6841290980000E-01  1.9211052275000E-01
   188  1.8700000000000E+00  1.6282449493000E-01  1.7798870691000E-01
   189  1.8800000000000E+00  1.5713098390000E-01  1.6464357857000E-01
   190  1.8900000000000E+00  1.5135486412000E-01  1.5205654980000E-01
   191  1.9000000000000E+00  1.4551827213000E-01  1.4020810318000E-01
   192  1.9100000000000E+00  1.3964110079000E-01  1.2907603518000E-01
   193  1.9200000000000E+00  1.3374550121000E-01  1.1863838720000E-01
   194  1.9300000000000E+00  1.2784868871000E-01  1.0887087319000E-01
   195  1.9400000000000E+00  1.2197174970000E-01  9.9748879459000E-02
   196  1.9500000000000E+00  1.1613051205000E-01  9.1247231559000E-02
   197  1.9600000000000E+00  1.1034310549000E-01  8.3339551185000E-02
   198  1.9700000000000E+00  1.0462535538000E-01  7.5999652364000E-02
   199  1.9800000000000E+00  9.8991540755000E-02  6.9201066586000E-02
   200  1.9900000000000E+00  9.3457701972000E-02  6.2916010916000E-02
   201  2.0000000000000E+00  8.8034489923000E-02  5.7119221696000E-02
   202  2.0100000000000E+00  8.2736601866000E-02  5.1782069575000E-02
   203  2.0200000000000E+00  7.7573199229000E-02  4.6879829885000E-02
   204  2.0300000000000E+00  7.2555107246000E-02  4.2385673788000E-02
   205  2.0400000000000E+00  6.7691965279000E-02  3.8273559994000E-02
   206  2.0500000000000E+00  6.2989987174000E-02  3.4520396288000E-02
   207  2.0600000000000E+00  5.8459156644000E-02  3.1098341102000E-02
   208  2.0700000000000E+00  5.4102592123000E-02  2.7987332662000E-02
   209  2.0800000000000E+00  4.9926760750000E-02  2.5162535550000E-02
   210  2.0900000000000E+00  4.5935552010000E-02  2.2602236397000E-02
   211  2.1000000000000E+00  4.2130679045000E-02  2.0287259127000E-02
   212  2.1100000000000E+00  3.8516714025000E-02  1.8193604075000E-02
   213  2.1200000000000E+00  3.5092232148000E-02  1.6306362447000E-02
   214  2.1300000000000E+00  3.1858723350000E-02  1.4605242777000E-02
   215  2.1400000000000E+00  2.8815522515000E-02  1.3073386364000E-02
   216  2.1500000000000E+00  2.5959969123000E-02  1.1697075950000E-02
   217  2.1600000000000E+00  2.3291813340000E-02  1.0457259074000E-02
   218  2.1700000000000E+00  2.0806168392000E-02  9.3441539735000E-03
   219  2.1800000000000E+00  1.8499877553000E-02  8.3435685433000E-03
   220  2.1900000000000E+00  1.6368995227000E-02  7.4427597328000E-03
   221  2.2000000000000E+00  1.4407497200000E-02  6.6336745911000E-03
   222  2.2100000000000E+00  1.2610781307000E-02  5.9035270636000E-03
   223  2.2200000000000E+00  1.0972193476000E-02  5.2456033637000E-03
   224  2.2300000000000E+00  9.4850448156000E-03  4.6524706745000E-03
   225  2.2400000000000E+00  8.1429484133000E-03  4.1145456864000E-03
   226  2.2500000000000E+00  6.9381421556000E-03  3.6285657860000E-03
   227  2.2600000000000E+00  5.8631531623000E-03  3.1877485977000E-03
   228  2.2700000000000E+00  4.9102966681000E-03  2.7870305465000E-03
   229  2.2800000000000E+00  4.0716559446000E-03  2.4239062808000E-03
   230  2.2900000000000E+00  3.3388572240000E-03  2.0931495794000E-03
   231  2.3000000000000E+00  2.7041546662000E-03  1.7928297432000E-03
   232  2.3100000000000E+00  2.1596361860000E-03  1.5209807627000E-03
   233  2.3200000000000E+00  1.6962990062000E-03  1.2739858159000E-03
   234  2.3300000000000E+00  1.3074074230000E-03  1.0515236793000E-03
   235  2.3400000000000E+00  9.8489984210000E-04  8.5192507384000E-04
   236  2.3500000000000E+00  7.2048538451000E-04  6.7344898887000E-04
   237  2.3600000000000E+00  5.0831471414000E-04  5.1562592647000E-04
   238  2.3700000000000E+00  3.4057834668000E-04  3.7738120012000E-04
   239  2.3800000000000E+00  2.1052007189000E-04  2.5772022352000E-04
   240  2.3900000000000E+00  1.1336165317000E-04  1.5580809575000E-04
   241  2.4000000000000E+00  4.1894409367000E-05  7.0894466412000E-05
   242  2.4100000000000E+00 -8.5358683149000E-06  1.8142915891000E-06
   243  2.4200000000000E+00 -4.1458006102000E-05 -5.2799933415000E-05
   244  2.4300000000000E+00 -6.3100367376000E-05 -9.3710657835000E-05
   245  2.4400000000000E+00 -7.5730207288000E-05 -1.2286440697000E-04
   246  2.4500000000000E+00 -8.1454899886000E-05 -1.4229976132000E-04
   247  2.4600000000000E+00 -8.8700090987000E-05 -1.6048103958000E-04
   248  2.4700000000000E+00 -9.2018157587000E-05 -1.6944333003000E-04
   249  2.4800000000000E+00 -8.7723169713000E-05 -1.6328088676000E-04
   250  2.4900000000000E+00 -6.2947653222000E-05 -1.1776407451000E-04
   251  2.5000000000000E+00 -3.1802240912000E-05 -5.9689551590000E-05
   252  2.5100000000000E+00 -2.6601036786000E-06 -5.0044217925000E-06
   253  2.5200000000000E+00  5.3386558278000E-06  9.9472159877000E-06
   254  2.5300000000000E+00  4.8302823434000E-06  8.9999923766000E-06
   255  2.5400000000000E+00  5.9417667496000E-07  1.1070958517000E-06
   256  2.5500000000000E+00  0.0000000000000E+00  0.0000000000000E+00
   257  2.5600000000000E+00  0.0000000000000E+00  0.0000000000000E+00
   258  2.5700000000000E+00  0.0000000000000E+00  0.0000000000000E+00
   259  2.5800000000000E+00  0.0000000000000E+00  0.0000000000000E+00
   260  2.5900000000000E+00  0.0000000000000E+00  0.0000000000000E+00
   261  2.6000000000000E+00  0.0000000000000E+00  0.0000000000000E+00
   262  2.6100000000000E+00  0.0000000000000E+00  0.0000000000000E+00
   263  2.6200000000000E+00  0.0000000000000E+00  0.0000000000000E+00
   264  2.6300000000000E+00  0.0000000000000E+00  0.0000000000000E+00
   265  2.6400000000000E+00  0.0000000000000E+00  0.0000000000000E+00
   266  2.6500000000000E+00  0.0000000000000E+00  0.0000000000000E+00
   267  2.6600000000000E+00  0.0000000000000E+00  0.0000000000000E+00
   268  2.6700000000000E+00  0.0000000000000E+00  0.0000000000000E+00
   269  2.6800000000000E+00  0.0000000000000E+00  0.0000000000000E+00
   270  2.6900000000000E+00  0.0000000000000E+00  0.0000000000000E+00
   271  2.7000000000000E+00  0.0000000000000E+00  0.0000000000000E+00
   272  2.7100000000000E+00  0.0000000000000E+00  0.0000000000000E+00
   273  2.7200000000000E+00  0.0000000000000E+00  0.0000000000000E+00
   274  2.7300000000000E+00  0.0000000000000E+00  0.0000000000000E+00
   275  2.7400000000000E+00  0.0000000000000E+00  0.0000000000000E+00
   276  2.7500000000000E+00  0.0000000000000E+00  0.0000000000000E+00
   277  2.7600000000000E+00  0.0000000000000E+00  0.0000000000000E+00
   278  2.7700000000000E+00  0.0000000000000E+00  0.0000000000000E+00
   279  2.7800000000000E+00  0.0000000000000E+00  0.0000000000000E+00
   280  2.7900000000000E+00  0.0000000000000E+00  0.0000000000000E+00
   281  2.8000000000000E+00  0.0000000000000E+00  0.0000000000000E+00
   282  2.8100000000000E+00  0.0000000000000E+00  0.0000000000000E+00
   283  2.8200000000000E+00  0.0000000000000E+00  0.0000000000000E+00
   284  2.8300000000000E+00  0.0000000000000E+00  0.0000000000000E+00
   285  2.8400000000000E+00  0.0000000000000E+00  0.0000000000000E+00
   286  2.8500000000000E+00  0.0000000000000E+00  0.0000000000000E+00
   287  2.8600000000000E+00  0.0000000000000E+00  0.0000000000000E+00
   288  2.8700000000000E+00  0.0000000000000E+00  0.0000000000000E+00
   289  2.8800000000000E+00  0.0000000000000E+00  0.0000000000000E+00
   290  2.8900000000000E+00  0.0000000000000E+00  0.0000000000000E+00
   291  2.9000000000000E+00  0.0000000000000E+00  0.0000000000000E+00
   292  2.9100000000000E+00  0.0000000000000E+00  0.0000000000000E+00
   293  2.9200000000000E+00  0.0000000000000E+00  0.0000000000000E+00
   294  2.9300000000000E+00  0.0000000000000E+00  0.0000000000000E+00
   295  2.9400000000000E+00  0.0000000000000E+00  0.0000000000000E+00
   296  2.9500000000000E+00  0.0000000000000E+00  0.0000000000000E+00
   297  2.9600000000000E+00  0.0000000000000E+00  0.0000000000000E+00
   298  2.9700000000000E+00  0.0000000000000E+00  0.0000000000000E+00
   299  2.9800000000000E+00  0.0000000000000E+00  0.0000000000000E+00
   300  2.9900000000000E+00  0.0000000000000E+00  0.0000000000000E+00
   301  3.0000000000000E+00  0.0000000000000E+00  0.0000000000000E+00
   302  3.0100000000000E+00  0.0000000000000E+00  0.0000000000000E+00
   303  3.0200000000000E+00  0.0000000000000E+00  0.0000000000000E+00
   304  3.0300000000000E+00  0.0000000000000E+00  0.0000000000000E+00
   305  3.0400000000000E+00  0.0000000000000E+00  0.0000000000000E+00
   306  3.0500000000000E+00  0.0000000000000E+00  0.0000000000000E+00
   307  3.0600000000000E+00  0.0000000000000E+00  0.0000000000000E+00
   308  3.0700000000000E+00  0.0000000000000E+00  0.0000000000000E+00
   309  3.0800000000000E+00  0.0000000000000E+00  0.0000000000000E+00
   310  3.0900000000000E+00  0.0000000000000E+00  0.0000000000000E+00
   311  3.1000000000000E+00  0.0000000000000E+00  0.0000000000000E+00
   312  3.1100000000000E+00  0.0000000000000E+00  0.0000000000000E+00
   313  3.1200000000000E+00  0.0000000000000E+00  0.0000000000000E+00
   314  3.1300000000000E+00  0.0000000000000E+00  0.0000000000000E+00
   315  3.1400000000000E+00  0.0000000000000E+00  0.0000000000000E+00
   316  3.1500000000000E+00  0.0000000000000E+00  0.0000000000000E+00
   317  3.1600000000000E+00  0.0000000000000E+00  0.0000000000000E+00
   318  3.1700000000000E+00  0.0000000000000E+00  0.0000000000000E+00
   319  3.1800000000000E+00  0.0000000000000E+00  0.0000000000000E+00
   320  3.1900000000000E+00  0.0000000000000E+00  0.0000000000000E+00
   321  3.2000000000000E+00  0.0000000000000E+00  0.0000000000000E+00
   322  3.2100000000000E+00  0.0000000000000E+00  0.0000000000000E+00
   323  3.2200000000000E+00  0.0000000000000E+00  0.0000000000000E+00
   324  3.2300000000000E+00  0.0000000000000E+00  0.0000000000000E+00
   325  3.2400000000000E+00  0.0000000000000E+00  0.0000000000000E+00
   326  3.2500000000000E+00  0.0000000000000E+00  0.0000000000000E+00
   327  3.2600000000000E+00  0.0000000000000E+00  0.0000000000000E+00
   328  3.2700000000000E+00  0.0000000000000E+00  0.0000000000000E+00
   329  3.2800000000000E+00  0.0000000000000E+00  0.0000000000000E+00
   330  3.2900000000000E+00  0.0000000000000E+00  0.0000000000000E+00
   331  3.3000000000000E+00  0.0000000000000E+00  0.0000000000000E+00
   332  3.3100000000000E+00  0.0000000000000E+00  0.0000000000000E+00
   333  3.3200000000000E+00  0.0000000000000E+00  0.0000000000000E+00
   334  3.3300000000000E+00  0.0000000000000E+00  0.0000000000000E+00
   335  3.3400000000000E+00  0.0000000000000E+00  0.0000000000000E+00
   336  3.3500000000000E+00  0.0000000000000E+00  0.0000000000000E+00
   337  3.3600000000000E+00  0.0000000000000E+00  0.0000000000000E+00
   338  3.3700000000000E+00  0.0000000000000E+00  0.0000000000000E+00
   339  3.3800000000000E+00  0.0000000000000E+00  0.0000000000000E+00
   340  3.3900000000000E+00  0.0000000000000E+00  0.0000000000000E+00
   341  3.4000000000000E+00  0.0000000000000E+00  0.0000000000000E+00
   342  3.4100000000000E+00  0.0000000000000E+00  0.0000000000000E+00
   343  3.4200000000000E+00  0.0000000000000E+00  0.0000000000000E+00
   344  3.4300000000000E+00  0.0000000000000E+00  0.0000000000000E+00
   345  3.4400000000000E+00  0.0000000000000E+00  0.0000000000000E+00
   346  3.4500000000000E+00  0.0000000000000E+00  0.0000000000000E+00
   347  3.4600000000000E+00  0.0000000000000E+00  0.0000000000000E+00
   348  3.4700000000000E+00  0.0000000000000E+00  0.0000000000000E+00
   349  3.4800000000000E+00  0.0000000000000E+00  0.0000000000000E+00
   350  3.4900000000000E+00  0.0000000000000E+00  0.0000000000000E+00
   351  3.5000000000000E+00  0.0000000000000E+00  0.0000000000000E+00
   352  3.5100000000000E+00  0.0000000000000E+00  0.0000000000000E+00
   353  3.5200000000000E+00  0.0000000000000E+00  0.0000000000000E+00
   354  3.5300000000000E+00  0.0000000000000E+00  0.0000000000000E+00
   355  3.5400000000000E+00  0.0000000000000E+00  0.0000000000000E+00
   356  3.5500000000000E+00  0.0000000000000E+00  0.0000000000000E+00
   357  3.5600000000000E+00  0.0000000000000E+00  0.0000000000000E+00
   358  3.5700000000000E+00  0.0000000000000E+00  0.0000000000000E+00
   359  3.5800000000000E+00  0.0000000000000E+00  0.0000000000000E+00
   360  3.5900000000000E+00  0.0000000000000E+00  0.0000000000000E+00
   361  3.6000000000000E+00  0.0000000000000E+00  0.0000000000000E+00
   362  3.6100000000000E+00  0.0000000000000E+00  0.0000000000000E+00
   363  3.6200000000000E+00  0.0000000000000E+00  0.0000000000000E+00
   364  3.6300000000000E+00  0.0000000000000E+00  0.0000000000000E+00
   365  3.6400000000000E+00  0.0000000000000E+00  0.0000000000000E+00
   366  3.6500000000000E+00  0.0000000000000E+00  0.0000000000000E+00
   367  3.6600000000000E+00  0.0000000000000E+00  0.0000000000000E+00
   368  3.6700000000000E+00  0.0000000000000E+00  0.0000000000000E+00
   369  3.6800000000000E+00  0.0000000000000E+00  0.0000000000000E+00
   370  3.6900000000000E+00  0.0000000000000E+00  0.0000000000000E+00
   371  3.7000000000000E+00  0.0000000000000E+00  0.0000000000000E+00
   372  3.7100000000000E+00  0.0000000000000E+00  0.0000000000000E+00
   373  3.7200000000000E+00  0.0000000000000E+00  0.0000000000000E+00
   374  3.7300000000000E+00  0.0000000000000E+00  0.0000000000000E+00
   375  3.7400000000000E+00  0.0000000000000E+00  0.0000000000000E+00
   376  3.7500000000000E+00  0.0000000000000E+00  0.0000000000000E+00
   377  3.7600000000000E+00  0.0000000000000E+00  0.0000000000000E+00
   378  3.7700000000000E+00  0.0000000000000E+00  0.0000000000000E+00
   379  3.7800000000000E+00  0.0000000000000E+00  0.0000000000000E+00
   380  3.7900000000000E+00  0.0000000000000E+00  0.0000000000000E+00
   381  3.8000000000000E+00  0.0000000000000E+00  0.0000000000000E+00
   382  3.8100000000000E+00  0.0000000000000E+00  0.0000000000000E+00
   383  3.8200000000000E+00  0.0000000000000E+00  0.0000000000000E+00
   384  3.8300000000000E+00  0.0000000000000E+00  0.0000000000000E+00
   385  3.8400000000000E+00  0.0000000000000E+00  0.0000000000000E+00
   386  3.8500000000000E+00  0.0000000000000E+00  0.0000000000000E+00
   387  3.8600000000000E+00  0.0000000000000E+00  0.0000000000000E+00
   388  3.8700000000000E+00  0.0000000000000E+00  0.0000000000000E+00
   389  3.8800000000000E+00  0.0000000000000E+00  0.0000000000000E+00
   390  3.8900000000000E+00  0.0000000000000E+00  0.0000000000000E+00
   391  3.9000000000000E+00  0.0000000000000E+00  0.0000000000000E+00
   392  3.9100000000000E+00  0.0000000000000E+00  0.0000000000000E+00
   393  3.9200000000000E+00  0.0000000000000E+00  0.0000000000000E+00
   394  3.9300000000000E+00  0.0000000000000E+00  0.0000000000000E+00
   395  3.9400000000000E+00  0.0000000000000E+00  0.0000000000000E+00
   396  3.9500000000000E+00  0.0000000000000E+00  0.0000000000000E+00
   397  3.9600000000000E+00  0.0000000000000E+00  0.0000000000000E+00
   398  3.9700000000000E+00  0.0000000000000E+00  0.0000000000000E+00
   399  3.9800000000000E+00  0.0000000000000E+00  0.0000000000000E+00
   400  3.9900000000000E+00  0.0000000000000E+00  0.0000000000000E+00
   401  4.0000000000000E+00  0.0000000000000E+00  0.0000000000000E+00
   402  4.0100000000000E+00  0.0000000000000E+00  0.0000000000000E+00
   403  4.0200000000000E+00  0.0000000000000E+00  0.0000000000000E+00
   404  4.0300000000000E+00  0.0000000000000E+00  0.0000000000000E+00
   405  4.0400000000000E+00  0.0000000000000E+00  0.0000000000000E+00
   406  4.0500000000000E+00  0.0000000000000E+00  0.0000000000000E+00
   407  4.0600000000000E+00  0.0000000000000E+00  0.0000000000000E+00
   408  4.0700000000000E+00  0.0000000000000E+00  0.0000000000000E+00
   409  4.0800000000000E+00  0.0000000000000E+00  0.0000000000000E+00
   410  4.0900000000000E+00  0.0000000000000E+00  0.0000000000000E+00
   411  4.1000000000000E+00  0.0000000000000E+00  0.0000000000000E+00
   412  4.1100000000000E+00  0.0000000000000E+00  0.0000000000000E+00
   413  4.1200000000000E+00  0.0000000000000E+00  0.0000000000000E+00
   414  4.1300000000000E+00  0.0000000000000E+00  0.0000000000000E+00
   415  4.1400000000000E+00  0.0000000000000E+00  0.0000000000000E+00
   416  4.1500000000000E+00  0.0000000000000E+00  0.0000000000000E+00
   417  4.1600000000000E+00  0.0000000000000E+00  0.0000000000000E+00
   418  4.1700000000000E+00  0.0000000000000E+00  0.0000000000000E+00
   419  4.1800000000000E+00  0.0000000000000E+00  0.0000000000000E+00
   420  4.1900000000000E+00  0.0000000000000E+00  0.0000000000000E+00
   421  4.2000000000000E+00  0.0000000000000E+00  0.0000000000000E+00
   422  4.2100000000000E+00  0.0000000000000E+00  0.0000000000000E+00
   423  4.2200000000000E+00  0.0000000000000E+00  0.0000000000000E+00