Te   ONCVPSP-2.1.1   r_core=    2.49231 3.12631 2.77477
    52.0000   16.0000   150415   zatom,zion,pspd
    8   11   2   4   600   0   pspcod,pspxc,lmax,lloc,mmax,r2well
    5.99000000   0.00000000   0.00000000   rchrg fchrg qchrg
    2   2   2   0   0   nproj
    1   1   extension_switch
       0                         6.1293115645000E+00  1.2108943891500E+00
     1  0.0000000000000E+00  0.0000000000000E+00  0.0000000000000E+00
     2  1.0000000000000E-02 -1.7618943209000E-02  1.3307730395000E-02
     3  2.0000000000000E-02 -3.5248927713000E-02  2.6532994849000E-02
     4  3.0000000000000E-02 -5.2900932198000E-02  3.9593690685000E-02
     5  4.0000000000000E-02 -7.0585810313000E-02  5.2408440383000E-02
     6  5.0000000000000E-02 -8.8314228615000E-02  6.4896950695000E-02
     7  6.0000000000000E-02 -1.0609660508000E-01  7.6980367647000E-02
     8  7.0000000000000E-02 -1.2394304833000E-01  8.8581626043000E-02
     9  8.0000000000000E-02 -1.4186329781000E-01  9.9625792164000E-02
    10  9.0000000000000E-02 -1.5986666506000E-01  1.1004039832000E-01
    11  1.0000000000000E-01 -1.7796197623000E-01  1.1975576799000E-01
    12  1.1000000000000E-01 -1.9615751609000E-01  1.2870533030000E-01
    13  1.2000000000000E-01 -2.1446097361000E-01  1.3682592263000E-01
    14  1.3000000000000E-01 -2.3287938942000E-01  1.4405808011000E-01
    15  1.4000000000000E-01 -2.5141910504000E-01  1.5034631100000E-01
    16  1.5000000000000E-01 -2.7008571445000E-01  1.5563935672000E-01
    17  1.6000000000000E-01 -2.8888401765000E-01  1.5989043570000E-01
    18  1.7000000000000E-01 -3.0781797686000E-01  1.6305746982000E-01
    19  1.8000000000000E-01 -3.2689067508000E-01  1.6510329277000E-01
    20  1.9000000000000E-01 -3.4610427737000E-01  1.6599583948000E-01
    21  2.0000000000000E-01 -3.6545999502000E-01  1.6570831543000E-01
    22  2.1000000000000E-01 -3.8495805242000E-01  1.6421934589000E-01
    23  2.2000000000000E-01 -4.0459765722000E-01  1.6151310359000E-01
    24  2.3000000000000E-01 -4.2437697336000E-01  1.5757941505000E-01
    25  2.4000000000000E-01 -4.4429309752000E-01  1.5241384440000E-01
    26  2.5000000000000E-01 -4.6434203874000E-01  1.4601775488000E-01
    27  2.6000000000000E-01 -4.8451870155000E-01  1.3839834726000E-01
    28  2.7000000000000E-01 -5.0481687240000E-01  1.2956867526000E-01
    29  2.8000000000000E-01 -5.2522920981000E-01  1.1954763739000E-01
    30  2.9000000000000E-01 -5.4574723790000E-01  1.0835994574000E-01
    31  3.0000000000000E-01 -5.6636134362000E-01  9.6036071287000E-02
    32  3.1000000000000E-01 -5.8706077765000E-01  8.2612165904000E-02
    33  3.2000000000000E-01 -6.0783365891000E-01  6.8129961360000E-02
    34  3.3000000000000E-01 -6.2866698277000E-01  5.2636645925000E-02
    35  3.4000000000000E-01 -6.4954663293000E-01  3.6184717134000E-02
    36  3.5000000000000E-01 -6.7045739701000E-01  1.8831816100000E-02
    37  3.6000000000000E-01 -6.9138298582000E-01  6.4053425043000E-04
    38  3.7000000000000E-01 -7.1230605615000E-01 -1.8321793101000E-02
    39  3.8000000000000E-01 -7.3320823722000E-01 -3.7983318332000E-02
    40  3.9000000000000E-01 -7.5407016091000E-01 -5.8267933442000E-02
    41  4.0000000000000E-01 -7.7487149503000E-01 -7.9095535038000E-02
    42  4.1000000000000E-01 -7.9559098036000E-01 -1.0038231086000E-01
    43  4.2000000000000E-01 -8.1620647093000E-01 -1.2204104186000E-01
    44  4.3000000000000E-01 -8.3669497763000E-01 -1.4398141968000E-01
    45  4.4000000000000E-01 -8.5703271494000E-01 -1.6611037831000E-01
    46  4.5000000000000E-01 -8.7719515080000E-01 -1.8833243900000E-01
    47  4.6000000000000E-01 -8.9715705942000E-01 -2.1055006688000E-01
    48  4.7000000000000E-01 -9.1689257689000E-01 -2.3266403793000E-01
    49  4.8000000000000E-01 -9.3637525890000E-01 -2.5457381032000E-01
    50  4.9000000000000E-01 -9.5557814177000E-01 -2.7617790972000E-01
    51  5.0000000000000E-01 -9.7447380845000E-01 -2.9737433767000E-01
    52  5.1000000000000E-01 -9.9303445105000E-01 -3.1806094410000E-01
    53  5.2000000000000E-01 -1.0112319345000E+00 -3.3813579960000E-01
    54  5.3000000000000E-01 -1.0290378798000E+00 -3.5749768597000E-01
    55  5.4000000000000E-01 -1.0464237196000E+00 -3.7604638992000E-01
    56  5.5000000000000E-01 -1.0633607803000E+00 -3.9368316253000E-01
    57  5.6000000000000E-01 -1.0798203567000E+00 -4.1031111622000E-01
    58  5.7000000000000E-01 -1.0957737793000E+00 -4.2583556373000E-01
    59  5.8000000000000E-01 -1.1111925043000E+00 -4.4016448515000E-01
    60  5.9000000000000E-01 -1.1260481770000E+00 -4.5320882210000E-01
    61  6.0000000000000E-01 -1.1403127179000E+00 -4.6488289294000E-01
    62  6.1000000000000E-01 -1.1539584072000E+00 -4.7510478523000E-01
    63  6.2000000000000E-01 -1.1669579327000E+00 -4.8379653268000E-01
    64  6.3000000000000E-01 -1.1792845210000E+00 -4.9088473451000E-01
    65  6.4000000000000E-01 -1.1909119693000E+00 -4.9630061975000E-01
    66  6.5000000000000E-01 -1.2018147265000E+00 -4.9998037484000E-01
    67  6.6000000000000E-01 -1.2119680116000E+00 -5.0186563509000E-01
    68  6.7000000000000E-01 -1.2213478470000E+00 -5.0190352940000E-01
    69  6.8000000000000E-01 -1.2299311374000E+00 -5.0004695697000E-01
    70  6.9000000000000E-01 -1.2376957609000E+00 -4.9625488954000E-01
    71  7.0000000000000E-01 -1.2446206436000E+00 -4.9049258609000E-01
    72  7.1000000000000E-01 -1.2506858104000E+00 -4.8273168149000E-01
    73  7.2000000000000E-01 -1.2558724607000E+00 -4.7295038183000E-01
    74  7.3000000000000E-01 -1.2601630290000E+00 -4.6113357627000E-01
    75  7.4000000000000E-01 -1.2635412577000E+00 -4.4727298273000E-01
    76  7.5000000000000E-01 -1.2659922668000E+00 -4.3136725835000E-01
    77  7.6000000000000E-01 -1.2675025903000E+00 -4.1342197451000E-01
    78  7.7000000000000E-01 -1.2680602394000E+00 -3.9344968001000E-01
    79  7.8000000000000E-01 -1.2676547545000E+00 -3.7146990438000E-01
    80  7.9000000000000E-01 -1.2662772527000E+00 -3.4750913435000E-01
    81  8.0000000000000E-01 -1.2639204730000E+00 -3.2160076361000E-01
    82  8.1000000000000E-01 -1.2605788166000E+00 -2.9378501598000E-01
    83  8.2000000000000E-01 -1.2562483838000E+00 -2.6410884224000E-01
    84  8.3000000000000E-01 -1.2509270067000E+00 -2.3262579102000E-01
    85  8.4000000000000E-01 -1.2446142778000E+00 -1.9939585413000E-01
    86  8.5000000000000E-01 -1.2373115740000E+00 -1.6448528688000E-01
    87  8.6000000000000E-01 -1.2290220767000E+00 -1.2796640412000E-01
    88  8.7000000000000E-01 -1.2197507866000E+00 -8.9917352581000E-02
    89  8.8000000000000E-01 -1.2095045346000E+00 -5.0421860450000E-02
    90  8.9000000000000E-01 -1.1982919876000E+00 -9.5689650464000E-03
    91  9.0000000000000E-01 -1.1861236495000E+00  3.2547280375000E-02
    92  9.1000000000000E-01 -1.1730118574000E+00  7.5828119579000E-02
    93  9.2000000000000E-01 -1.1589707728000E+00  1.2017042481000E-01
    94  9.3000000000000E-01 -1.1440163681000E+00  1.6546704543000E-01
    95  9.4000000000000E-01 -1.1281664081000E+00  2.1160717216000E-01
    96  9.5000000000000E-01 -1.1114404262000E+00  2.5847671547000E-01
    97  9.6000000000000E-01 -1.0938596960000E+00  3.0595869610000E-01
    98  9.7000000000000E-01 -1.0754471875000E+00  3.5393355689000E-01
    99  9.8000000000000E-01 -1.0562275638000E+00  4.0227979044000E-01
   100  9.9000000000000E-01 -1.0362271057000E+00  4.5087422107000E-01
   101  1.0000000000000E+00 -1.0154736699000E+00  4.9959243683000E-01
   102  1.0100000000000E+00 -9.9399663924000E-01  5.4830923361000E-01
   103  1.0200000000000E+00 -9.7182686550000E-01  5.9689904526000E-01
   104  1.0300000000000E+00 -9.4899661122000E-01  6.4523623921000E-01
   105  1.0400000000000E+00 -9.2553949109000E-01  6.9319573090000E-01
   106  1.0500000000000E+00 -9.0149038576000E-01  7.4065366928000E-01
   107  1.0600000000000E+00 -8.7688537372000E-01  7.8748742532000E-01
   108  1.0700000000000E+00 -8.5176165612000E-01  8.3357615647000E-01
   109  1.0800000000000E+00 -8.2615749886000E-01  8.7880093660000E-01
   110  1.0900000000000E+00 -8.0011212561000E-01  9.2304564464000E-01
   111  1.1000000000000E+00 -7.7366559025000E-01  9.6619762493000E-01
   112  1.1100000000000E+00 -7.4685874302000E-01  1.0081473330000E+00
   113  1.1200000000000E+00 -7.1973314781000E-01  1.0487887577000E+00
   114  1.1300000000000E+00 -6.9233101627000E-01  1.0880196707000E+00
   115  1.1400000000000E+00 -6.6469490589000E-01  1.1257435617000E+00
   116  1.1500000000000E+00 -6.3686782968000E-01  1.1618680818000E+00
   117  1.1600000000000E+00 -6.0889317836000E-01  1.1963054155000E+00
   118  1.1700000000000E+00 -5.8081452184000E-01  1.2289733550000E+00
   119  1.1800000000000E+00 -5.5267534346000E-01  1.2597963513000E+00
   120  1.1900000000000E+00 -5.2451920952000E-01  1.2887040000000E+00
   121  1.2000000000000E+00 -4.9638983257000E-01  1.3156306484000E+00
   122  1.2100000000000E+00 -4.6833024340000E-01  1.3405193936000E+00
   123  1.2200000000000E+00 -4.4038328306000E-01  1.3633188446000E+00
   124  1.2300000000000E+00 -4.1259165036000E-01  1.3839829059000E+00
   125  1.2400000000000E+00 -3.8499719220000E-01  1.4024737119000E+00
   126  1.2500000000000E+00 -3.5764100827000E-01  1.4187604292000E+00
   127  1.2600000000000E+00 -3.3056388747000E-01  1.4328173847000E+00
   128  1.2700000000000E+00 -3.0380550148000E-01  1.4446270020000E+00
   129  1.2800000000000E+00 -2.7740432353000E-01  1.4541793100000E+00
   130  1.2900000000000E+00 -2.5139841384000E-01  1.4614691838000E+00
   131  1.3000000000000E+00 -2.2582425001000E-01  1.4664999457000E+00
   132  1.3100000000000E+00 -2.0071688725000E-01  1.4692820351000E+00
   133  1.3200000000000E+00 -1.7611093318000E-01  1.4698303667000E+00
   134  1.3300000000000E+00 -1.5203865184000E-01  1.4681689853000E+00
   135  1.3400000000000E+00 -1.2853106405000E-01  1.4643275107000E+00
   136  1.3500000000000E+00 -1.0561856020000E-01  1.4583401662000E+00
   137  1.3600000000000E+00 -8.3328355850000E-02  1.4502503247000E+00
   138  1.3700000000000E+00 -6.1687169506000E-02  1.4401048537000E+00
   139  1.3800000000000E+00 -4.0719760100000E-02  1.4279569763000E+00
   140  1.3900000000000E+00 -2.0448329757000E-02  1.4138661161000E+00
   141  1.4000000000000E+00 -8.9474816167000E-04  1.3978950806000E+00
   142  1.4100000000000E+00  1.7922726077000E-02  1.3801135157000E+00
   143  1.4200000000000E+00  3.5986684740000E-02  1.3605942936000E+00
   144  1.4300000000000E+00  5.3281722582000E-02  1.3394149780000E+00
   145  1.4400000000000E+00  6.9795407015000E-02  1.3166571983000E+00
   146  1.4500000000000E+00  8.5515453470000E-02  1.2924058197000E+00
   147  1.4600000000000E+00  1.0043389100000E-01  1.2667492833000E+00
   148  1.4700000000000E+00  1.1454294385000E-01  1.2397787281000E+00
   149  1.4800000000000E+00  1.2783788244000E-01  1.2115879728000E+00
   150  1.4900000000000E+00  1.4031585717000E-01  1.1822725740000E+00
   151  1.5000000000000E+00  1.5197541731000E-01  1.1519308651000E+00
   152  1.5100000000000E+00  1.6281849059000E-01  1.1206607476000E+00
   153  1.5200000000000E+00  1.7284699301000E-01  1.0885641027000E+00
   154  1.5300000000000E+00  1.8206713973000E-01  1.0557396842000E+00
   155  1.5400000000000E+00  1.9048493777000E-01  1.0222903703000E+00
   156  1.5500000000000E+00  1.9810994632000E-01  9.8831557940000E-01
   157  1.5600000000000E+00  2.0495236192000E-01  9.5391689022000E-01
   158  1.5700000000000E+00  2.1102492114000E-01  9.1919340845000E-01
   159  1.5800000000000E+00  2.1634169724000E-01  8.8424359540000E-01
   160  1.5900000000000E+00  2.2091848784000E-01  8.4916509086000E-01
   161  1.6000000000000E+00  2.2477283510000E-01  8.1405164705000E-01
   162  1.6100000000000E+00  2.2792344821000E-01  7.7899821199000E-01
   163  1.6200000000000E+00  2.3039087938000E-01  7.4409245041000E-01
   164  1.6300000000000E+00  2.3219655117000E-01  7.0942534190000E-01
   165  1.6400000000000E+00  2.3336353425000E-01  6.7507730328000E-01
   166  1.6500000000000E+00  2.3391570792000E-01  6.4113404510000E-01
   167  1.6600000000000E+00  2.3387815112000E-01  6.0766779214000E-01
   168  1.6700000000000E+00  2.3327687917000E-01  5.7475768604000E-01
   169  1.6800000000000E+00  2.3213846283000E-01  5.4246702905000E-01
   170  1.6900000000000E+00  2.3049066437000E-01  5.1086711318000E-01
   171  1.7000000000000E+00  2.2836103623000E-01  4.8001179961000E-01
   172  1.7100000000000E+00  2.2577862556000E-01  4.4996328101000E-01
   173  1.7200000000000E+00  2.2277147715000E-01  4.2076566886000E-01
   174  1.7300000000000E+00  2.1936938146000E-01  3.9247084583000E-01
   175  1.7400000000000E+00  2.1560042422000E-01  3.6511306869000E-01
   176  1.7500000000000E+00  2.1149450954000E-01  3.3873274769000E-01
   177  1.7600000000000E+00  2.0707936960000E-01  3.1335436732000E-01
   178  1.7700000000000E+00  2.0238429537000E-01  2.8900576781000E-01
   179  1.7800000000000E+00  1.9743634637000E-01  2.6570189934000E-01
   180  1.7900000000000E+00  1.9226334962000E-01  2.4345694058000E-01
   181  1.8000000000000E+00  1.8689149248000E-01  2.2227678227000E-01
   182  1.8100000000000E+00  1.8134611407000E-01  2.0216072134000E-01
   183  1.8200000000000E+00  1.7565255760000E-01  1.8310665290000E-01
   184  1.8300000000000E+00  1.6983368262000E-01  1.6510262563000E-01
   185  1.8400000000000E+00  1.6391405806000E-01  1.4813948782000E-01
   186  1.8500000000000E+00  1.5791444360000E-01  1.3219861026000E-01
   187  1.8600000000000E+00  1.5185895302000E-01  1.1726559416000E-01
   188  1.8700000000000E+00  1.4576625454000E-01  1.0331637236000E-01
   189  1.8800000000000E+00  1.3965875037000E-01  9.0330240490000E-02
   190  1.8900000000000E+00  1.3355421639000E-01  7.8280274257000E-02
   191  1.9000000000000E+00  1.2747231732000E-01  6.7139695400000E-02
   192  1.9100000000000E+00  1.2143038533000E-01  5.6879225404000E-02
   193  1.9200000000000E+00  1.1544484790000E-01  4.7467550354000E-02
   194  1.9300000000000E+00  1.0953275630000E-01  3.8872850737000E-02
   195  1.9400000000000E+00  1.0370702865000E-01  3.1061226639000E-02
   196  1.9500000000000E+00  9.7984425996000E-02  2.3997913721000E-02
   197  1.9600000000000E+00  9.2375128726000E-02  1.7648050703000E-02
   198  1.9700000000000E+00  8.6893020000000E-02  1.1974769768000E-02
   199  1.9800000000000E+00  8.1548120232000E-02  6.9422627115000E-03
   200  1.9900000000000E+00  7.6350318723000E-02  2.5136267534000E-03
   201  2.0000000000000E+00  7.1309703867000E-02 -1.3487424918000E-03
   202  2.0100000000000E+00  6.6432263226000E-02 -4.6797086730000E-03
   203  2.0200000000000E+00  6.1727535639000E-02 -7.5187746459000E-03
   204  2.0300000000000E+00  5.7199183620000E-02 -9.8989151696000E-03
   205  2.0400000000000E+00  5.2853380742000E-02 -1.1857476646000E-02
   206  2.0500000000000E+00  4.8694144357000E-02 -1.3428979741000E-02
   207  2.0600000000000E+00  4.4723473661000E-02 -1.4645481427000E-02
   208  2.0700000000000E+00  4.0945675736000E-02 -1.5544145748000E-02
   209  2.0800000000000E+00  3.7359816445000E-02 -1.6152066317000E-02
   210  2.0900000000000E+00  3.3967687227000E-02 -1.6503309486000E-02
   211  2.1000000000000E+00  3.0768484338000E-02 -1.6626091473000E-02
   212  2.1100000000000E+00  2.7760318005000E-02 -1.6546754200000E-02
   213  2.1200000000000E+00  2.4942786950000E-02 -1.6296778199000E-02
   214  2.1300000000000E+00  2.2311509215000E-02 -1.5895851273000E-02
   215  2.1400000000000E+00  1.9864027050000E-02 -1.5371268122000E-02
   216  2.1500000000000E+00  1.7596146527000E-02 -1.4744301020000E-02
   217  2.1600000000000E+00  1.5502584342000E-02 -1.4032813500000E-02
   218  2.1700000000000E+00  1.3579331640000E-02 -1.3261906414000E-02
   219  2.1800000000000E+00  1.1819598072000E-02 -1.2442859738000E-02
   220  2.1900000000000E+00  1.0217552095000E-02 -1.1594026734000E-02
   221  2.2000000000000E+00  8.7668097213000E-03 -1.0730785800000E-02
   222  2.2100000000000E+00  7.4600359673000E-03 -9.8622340263000E-03
   223  2.2200000000000E+00  6.2902491435000E-03 -9.0042170681000E-03
   224  2.2300000000000E+00  5.2498572834000E-03 -8.1632872348000E-03
   225  2.2400000000000E+00  4.3310982685000E-03 -7.3473695607000E-03
   226  2.2500000000000E+00  3.5260088681000E-03 -6.5672438208000E-03
   227  2.2600000000000E+00  2.8268837798000E-03 -5.8243949315000E-03
   228  2.2700000000000E+00  2.2254134581000E-03 -5.1254028466000E-03
   229  2.2800000000000E+00  1.7135811194000E-03 -4.4742447338000E-03
   230  2.2900000000000E+00  1.2838932799000E-03 -3.8709542189000E-03
   231  2.3000000000000E+00  9.2762517915000E-04 -3.3195382705000E-03
   232  2.3100000000000E+00  6.3770873326000E-04 -2.8190914048000E-03
   233  2.3200000000000E+00  4.0700474653000E-04 -2.3684926854000E-03
   234  2.3300000000000E+00  2.2665218210000E-04 -1.9691575733000E-03
   235  2.3400000000000E+00  9.1350004611000E-05 -1.6173754157000E-03
   236  2.3500000000000E+00 -5.9017330382000E-06 -1.3112819254000E-03
   237  2.3600000000000E+00 -7.2620666629000E-05 -1.0492328180000E-03
   238  2.3700000000000E+00 -1.1287919860000E-04 -8.2729669071000E-04
   239  2.3800000000000E+00 -1.3305268692000E-04 -6.4246982129000E-04
   240  2.3900000000000E+00 -1.3865064045000E-04 -4.9153868216000E-04
   241  2.4000000000000E+00 -1.3243992103000E-04 -3.7079171975000E-04
   242  2.4100000000000E+00 -1.1983138692000E-04 -2.7644567800000E-04
   243  2.4200000000000E+00 -1.0396059455000E-04 -2.0502825525000E-04
   244  2.4300000000000E+00 -8.6134706171000E-05 -1.5330632245000E-04
   245  2.4400000000000E+00 -7.0473302170000E-05 -1.1720319331000E-04
   246  2.4500000000000E+00 -5.7596649960000E-05 -9.3877298194000E-05
   247  2.4600000000000E+00 -4.7202035653000E-05 -8.0778918603000E-05
   248  2.4700000000000E+00 -4.2791633569000E-05 -7.6578954137000E-05
   249  2.4800000000000E+00 -4.1233894130000E-05 -7.6162872028000E-05
   250  2.4900000000000E+00 -3.9076305783000E-05 -7.4180471121000E-05
   251  2.5000000000000E+00 -2.8736292691000E-05 -5.5253331266000E-05
   252  2.5100000000000E+00 -1.5097299625000E-05 -2.9233017934000E-05
   253  2.5200000000000E+00 -2.4187043691000E-06 -4.7075890653000E-06
   254  2.5300000000000E+00  2.2077954884000E-06  4.2138612775000E-06
   255  2.5400000000000E+00  2.2829430943000E-06  4.3572901359000E-06
   256  2.5500000000000E+00  5.4748123275000E-07  1.0449382558000E-06
   257  2.5600000000000E+00  0.0000000000000E+00  0.0000000000000E+00
   258  2.5700000000000E+00  0.0000000000000E+00  0.0000000000000E+00
   259  2.5800000000000E+00  0.0000000000000E+00  0.0000000000000E+00
   260  2.5900000000000E+00  0.0000000000000E+00  0.0000000000000E+00
   261  2.6000000000000E+00  0.0000000000000E+00  0.0000000000000E+00
   262  2.6100000000000E+00  0.0000000000000E+00  0.0000000000000E+00
   263  2.6200000000000E+00  0.0000000000000E+00  0.0000000000000E+00
   264  2.6300000000000E+00  0.0000000000000E+00  0.0000000000000E+00
   265  2.6400000000000E+00  0.0000000000000E+00  0.0000000000000E+00
   266  2.6500000000000E+00  0.0000000000000E+00  0.0000000000000E+00
   267  2.6600000000000E+00  0.0000000000000E+00  0.0000000000000E+00
   268  2.6700000000000E+00  0.0000000000000E+00  0.0000000000000E+00
   269  2.6800000000000E+00  0.0000000000000E+00  0.0000000000000E+00
   270  2.6900000000000E+00  0.0000000000000E+00  0.0000000000000E+00
   271  2.7000000000000E+00  0.0000000000000E+00  0.0000000000000E+00
   272  2.7100000000000E+00  0.0000000000000E+00  0.0000000000000E+00
   273  2.7200000000000E+00  0.0000000000000E+00  0.0000000000000E+00
   274  2.7300000000000E+00  0.0000000000000E+00  0.0000000000000E+00
   275  2.7400000000000E+00  0.0000000000000E+00  0.0000000000000E+00
   276  2.7500000000000E+00  0.0000000000000E+00  0.0000000000000E+00
   277  2.7600000000000E+00  0.0000000000000E+00  0.0000000000000E+00
   278  2.7700000000000E+00  0.0000000000000E+00  0.0000000000000E+00
   279  2.7800000000000E+00  0.0000000000000E+00  0.0000000000000E+00
   280  2.7900000000000E+00  0.0000000000000E+00  0.0000000000000E+00
   281  2.8000000000000E+00  0.0000000000000E+00  0.0000000000000E+00
   282  2.8100000000000E+00  0.0000000000000E+00  0.0000000000000E+00
   283  2.8200000000000E+00  0.0000000000000E+00  0.0000000000000E+00
   284  2.8300000000000E+00  0.0000000000000E+00  0.0000000000000E+00
   285  2.8400000000000E+00  0.0000000000000E+00  0.0000000000000E+00
   286  2.8500000000000E+00  0.0000000000000E+00  0.0000000000000E+00
   287  2.8600000000000E+00  0.0000000000000E+00  0.0000000000000E+00
   288  2.8700000000000E+00  0.0000000000000E+00  0.0000000000000E+00
   289  2.8800000000000E+00  0.0000000000000E+00  0.0000000000000E+00
   290  2.8900000000000E+00  0.0000000000000E+00  0.0000000000000E+00
   291  2.9000000000000E+00  0.0000000000000E+00  0.0000000000000E+00
   292  2.9100000000000E+00  0.0000000000000E+00  0.0000000000000E+00
   293  2.9200000000000E+00  0.0000000000000E+00  0.0000000000000E+00
   294  2.9300000000000E+00  0.0000000000000E+00  0.0000000000000E+00
   295  2.9400000000000E+00  0.0000000000000E+00  0.0000000000000E+00
   296  2.9500000000000E+00  0.0000000000000E+00  0.0000000000000E+00
   297  2.9600000000000E+00  0.0000000000000E+00  0.0000000000000E+00
   298  2.9700000000000E+00  0.0000000000000E+00  0.0000000000000E+00
   299  2.9800000000000E+00  0.0000000000000E+00  0.0000000000000E+00
   300  2.9900000000000E+00  0.0000000000000E+00  0.0000000000000E+00
   301  3.0000000000000E+00  0.0000000000000E+00  0.0000000000000E+00
   302  3.0100000000000E+00  0.0000000000000E+00  0.0000000000000E+00
   303  3.0200000000000E+00  0.0000000000000E+00  0.0000000000000E+00
   304  3.0300000000000E+00  0.0000000000000E+00  0.0000000000000E+00
   305  3.0400000000000E+00  0.0000000000000E+00  0.0000000000000E+00
   306  3.0500000000000E+00  0.0000000000000E+00  0.0000000000000E+00
   307  3.0600000000000E+00  0.0000000000000E+00  0.0000000000000E+00
   308  3.0700000000000E+00  0.0000000000000E+00  0.0000000000000E+00
   309  3.0800000000000E+00  0.0000000000000E+00  0.0000000000000E+00
   310  3.0900000000000E+00  0.0000000000000E+00  0.0000000000000E+00
   311  3.1000000000000E+00  0.0000000000000E+00  0.0000000000000E+00
   312  3.1100000000000E+00  0.0000000000000E+00  0.0000000000000E+00
   313  3.1200000000000E+00  0.0000000000000E+00  0.0000000000000E+00
   314  3.1300000000000E+00  0.0000000000000E+00  0.0000000000000E+00
   315  3.1400000000000E+00  0.0000000000000E+00  0.0000000000000E+00
   316  3.1500000000000E+00  0.0000000000000E+00  0.0000000000000E+00
   317  3.1600000000000E+00  0.0000000000000E+00  0.0000000000000E+00
   318  3.1700000000000E+00  0.0000000000000E+00  0.0000000000000E+00
   319  3.1800000000000E+00  0.0000000000000E+00  0.0000000000000E+00
   320  3.1900000000000E+00  0.0000000000000E+00  0.0000000000000E+00
   321  3.2000000000000E+00  0.0000000000000E+00  0.0000000000000E+00
   322  3.2100000000000E+00  0.0000000000000E+00  0.0000000000000E+00
   323  3.2200000000000E+00  0.0000000000000E+00  0.0000000000000E+00
   324  3.2300000000000E+00  0.0000000000000E+00  0.0000000000000E+00
   325  3.2400000000000E+00  0.0000000000000E+00  0.0000000000000E+00
   326  3.2500000000000E+00  0.0000000000000E+00  0.0000000000000E+00
   327  3.2600000000000E+00  0.0000000000000E+00  0.0000000000000E+00
   328  3.2700000000000E+00  0.0000000000000E+00  0.0000000000000E+00
   329  3.2800000000000E+00  0.0000000000000E+00  0.0000000000000E+00
   330  3.2900000000000E+00  0.0000000000000E+00  0.0000000000000E+00
   331  3.3000000000000E+00  0.0000000000000E+00  0.0000000000000E+00
   332  3.3100000000000E+00  0.0000000000000E+00  0.0000000000000E+00
   333  3.3200000000000E+00  0.0000000000000E+00  0.0000000000000E+00
   334  3.3300000000000E+00  0.0000000000000E+00  0.0000000000000E+00
   335  3.3400000000000E+00  0.0000000000000E+00  0.0000000000000E+00
   336  3.3500000000000E+00  0.0000000000000E+00  0.0000000000000E+00
   337  3.3600000000000E+00  0.0000000000000E+00  0.0000000000000E+00
   338  3.3700000000000E+00  0.0000000000000E+00  0.0000000000000E+00
   339  3.3800000000000E+00  0.0000000000000E+00  0.0000000000000E+00
   340  3.3900000000000E+00  0.0000000000000E+00  0.0000000000000E+00
   341  3.4000000000000E+00  0.0000000000000E+00  0.0000000000000E+00
   342  3.4100000000000E+00  0.0000000000000E+00  0.0000000000000E+00
   343  3.4200000000000E+00  0.0000000000000E+00  0.0000000000000E+00
   344  3.4300000000000E+00  0.0000000000000E+00  0.0000000000000E+00
   345  3.4400000000000E+00  0.0000000000000E+00  0.0000000000000E+00
   346  3.4500000000000E+00  0.0000000000000E+00  0.0000000000000E+00
   347  3.4600000000000E+00  0.0000000000000E+00  0.0000000000000E+00
   348  3.4700000000000E+00  0.0000000000000E+00  0.0000000000000E+00
   349  3.4800000000000E+00  0.0000000000000E+00  0.0000000000000E+00
   350  3.4900000000000E+00  0.0000000000000E+00  0.0000000000000E+00
   351  3.5000000000000E+00  0.0000000000000E+00  0.0000000000000E+00
   352  3.5100000000000E+00  0.0000000000000E+00  0.0000000000000E+00
   353  3.5200000000000E+00  0.0000000000000E+00  0.0000000000000E+00
   354  3.5300000000000E+00  0.0000000000000E+00  0.0000000000000E+00
   355  3.5400000000000E+00  0.0000000000000E+00  0.0000000000000E+00
   356  3.5500000000000E+00  0.0000000000000E+00  0.0000000000000E+00
   357  3.5600000000000E+00  0.0000000000000E+00  0.0000000000000E+00
   358  3.5700000000000E+00  0.0000000000000E+00  0.0000000000000E+00
   359  3.5800000000000E+00  0.0000000000000E+00  0.0000000000000E+00
   360  3.5900000000000E+00  0.0000000000000E+00  0.0000000000000E+00
   361  3.6000000000000E+00  0.0000000000000E+00  0.0000000000000E+00
   362  3.6100000000000E+00  0.0000000000000E+00  0.0000000000000E+00
   363  3.6200000000000E+00  0.0000000000000E+00  0.0000000000000E+00
   364  3.6300000000000E+00  0.0000000000000E+00  0.0000000000000E+00
   365  3.6400000000000E+00  0.0000000000000E+00  0.0000000000000E+00
   366  3.6500000000000E+00  0.0000000000000E+00  0.0000000000000E+00
   367  3.6600000000000E+00  0.0000000000000E+00  0.0000000000000E+00
   368  3.6700000000000E+00  0.0000000000000E+00  0.0000000000000E+00
   369  3.6800000000000E+00  0.0000000000000E+00  0.0000000000000E+00
   370  3.6900000000000E+00  0.0000000000000E+00  0.0000000000000E+00
   371  3.7000000000000E+00  0.0000000000000E+00  0.0000000000000E+00
   372  3.7100000000000E+00  0.0000000000000E+00  0.0000000000000E+00
   373  3.7200000000000E+00  0.0000000000000E+00  0.0000000000000E+00
   374  3.7300000000000E+00  0.0000000000000E+00  0.0000000000000E+00
   375  3.7400000000000E+00  0.0000000000000E+00  0.0000000000000E+00
   376  3.7500000000000E+00  0.0000000000000E+00  0.0000000000000E+00
   377  3.7600000000000E+00  0.0000000000000E+00  0.0000000000000E+00
   378  3.7700000000000E+00  0.0000000000000E+00  0.0000000000000E+00
   379  3.7800000000000E+00  0.0000000000000E+00  0.0000000000000E+00
   380  3.7900000000000E+00  0.0000000000000E+00  0.0000000000000E+00
   381  3.8000000000000E+00  0.0000000000000E+00  0.0000000000000E+00
   382  3.8100000000000E+00  0.0000000000000E+00  0.0000000000000E+00
   383  3.8200000000000E+00  0.0000000000000E+00  0.0000000000000E+00
   384  3.8300000000000E+00  0.0000000000000E+00  0.0000000000000E+00
   385  3.8400000000000E+00  0.0000000000000E+00  0.0000000000000E+00
   386  3.8500000000000E+00  0.0000000000000E+00  0.0000000000000E+00
   387  3.8600000000000E+00  0.0000000000000E+00  0.0000000000000E+00
   388  3.8700000000000E+00  0.0000000000000E+00  0.0000000000000E+00
   389  3.8800000000000E+00  0.0000000000000E+00  0.0000000000000E+00
   390  3.8900000000000E+00  0.0000000000000E+00  0.0000000000000E+00
   391  3.9000000000000E+00  0.0000000000000E+00  0.0000000000000E+00
   392  3.9100000000000E+00  0.0000000000000E+00  0.0000000000000E+00
   393  3.9200000000000E+00  0.0000000000000E+00  0.0000000000000E+00
   394  3.9300000000000E+00  0.0000000000000E+00  0.0000000000000E+00
   395  3.9400000000000E+00  0.0000000000000E+00  0.0000000000000E+00
   396  3.9500000000000E+00  0.0000000000000E+00  0.0000000000000E+00
   397  3.9600000000000E+00  0.0000000000000E+00  0.0000000000000E+00
   398  3.9700000000000E+00  0.0000000000000E+00  0.0000000000000E+00
   399  3.9800000000000E+00  0.0000000000000E+00  0.0000000000000E+00
   400  3.9900000000000E+00  0.0000000000000E+00  0.0000000000000E+00
   401  4.0000000000000E+00  0.0000000000000E+00  0.0000000000000E+00
   402  4.0100000000000E+00  0.0000000000000E+00  0.0000000000000E+00
   403  4.0200000000000E+00  0.0000000000000E+00  0.0000000000000E+00
   404  4.0300000000000E+00  0.0000000000000E+00  0.0000000000000E+00
   405  4.0400000000000E+00  0.0000000000000E+00  0.0000000000000E+00
   406  4.0500000000000E+00  0.0000000000000E+00  0.0000000000000E+00
   407  4.0600000000000E+00  0.0000000000000E+00  0.0000000000000E+00
   408  4.0700000000000E+00  0.0000000000000E+00  0.0000000000000E+00
   409  4.0800000000000E+00  0.0000000000000E+00  0.0000000000000E+00
   410  4.0900000000000E+00  0.0000000000000E+00  0.0000000000000E+00
   411  4.1000000000000E+00  0.0000000000000E+00  0.0000000000000E+00
   412  4.1100000000000E+00  0.0000000000000E+00  0.0000000000000E+00
   413  4.1200000000000E+00  0.0000000000000E+00  0.0000000000000E+00
   414  4.1300000000000E+00  0.0000000000000E+00  0.0000000000000E+00
   415  4.1400000000000E+00  0.0000000000000E+00  0.0000000000000E+00
   416  4.1500000000000E+00  0.0000000000000E+00  0.0000000000000E+00
   417  4.1600000000000E+00  0.0000000000000E+00  0.0000000000000E+00
   418  4.1700000000000E+00  0.0000000000000E+00  0.0000000000000E+00
   419  4.1800000000000E+00  0.0000000000000E+00  0.0000000000000E+00
   420  4.1900000000000E+00  0.0000000000000E+00  0.0000000000000E+00
   421  4.2000000000000E+00  0.0000000000000E+00  0.0000000000000E+00
   422  4.2100000000000E+00  0.0000000000000E+00  0.0000000000000E+00
   423  4.2200000000000E+00  0.0000000000000E+00  0.0000000000000E+00