Xe   ONCVPSP-2.1.1   r_core=    3.01052 3.01052 2.70406
    54.0000   18.0000   150415   zatom,zion,pspd
    8   11   2   4   600   0   pspcod,pspxc,lmax,lloc,mmax,r2well
    5.99000000   0.00000000   0.00000000   rchrg fchrg qchrg
    2   2   2   0   0   nproj
    1   1   extension_switch
       0                         4.5873054252000E+00  5.0988641130000E-01
     1  0.0000000000000E+00  0.0000000000000E+00  0.0000000000000E+00
     2  1.0000000000000E-02 -3.2287486421000E-02  1.6962443421000E-02
     3  2.0000000000000E-02 -6.4552753844000E-02  3.3897061670000E-02
     4  3.0000000000000E-02 -9.6773598558000E-02  5.0776058831000E-02
     5  4.0000000000000E-02 -1.2892784742000E-01  6.7571697494000E-02
     6  5.0000000000000E-02 -1.6099337314000E-01  8.4256327998000E-02
     7  6.0000000000000E-02 -1.9294810962000E-01  1.0080241765000E-01
     8  7.0000000000000E-02 -2.2477006722000E-01  1.1718257994000E-01
     9  8.0000000000000E-02 -2.5643734811000E-01  1.3336960370000E-01
    10  9.0000000000000E-02 -2.8792816164000E-01  1.4933648225000E-01
    11  1.0000000000000E-01 -3.1922083964000E-01  1.6505644248000E-01
    12  1.1000000000000E-01 -3.5029385191000E-01  1.8050297392000E-01
    13  1.2000000000000E-01 -3.8112582151000E-01  1.9564985769000E-01
    14  1.3000000000000E-01 -4.1169554027000E-01  2.1047119544000E-01
    15  1.4000000000000E-01 -4.4198198422000E-01  2.2494143813000E-01
    16  1.5000000000000E-01 -4.7196432903000E-01  2.3903541481000E-01
    17  1.6000000000000E-01 -5.0162196553000E-01  2.5272836120000E-01
    18  1.7000000000000E-01 -5.3093451519000E-01  2.6599594819000E-01
    19  1.8000000000000E-01 -5.5988184563000E-01  2.7881431017000E-01
    20  1.9000000000000E-01 -5.8844408616000E-01  2.9116007323000E-01
    21  2.0000000000000E-01 -6.1660164325000E-01  3.0301038316000E-01
    22  2.1000000000000E-01 -6.4433521611000E-01  3.1434293321000E-01
    23  2.2000000000000E-01 -6.7162581212000E-01  3.2513599166000E-01
    24  2.3000000000000E-01 -6.9845476235000E-01  3.3536842916000E-01
    25  2.4000000000000E-01 -7.2480373701000E-01  3.4501974572000E-01
    26  2.5000000000000E-01 -7.5065476079000E-01  3.5407009737000E-01
    27  2.6000000000000E-01 -7.7599022832000E-01  3.6250032269000E-01
    28  2.7000000000000E-01 -8.0079291936000E-01  3.7029196867000E-01
    29  2.8000000000000E-01 -8.2504601404000E-01  3.7742731630000E-01
    30  2.9000000000000E-01 -8.4873310797000E-01  3.8388940580000E-01
    31  3.0000000000000E-01 -8.7183822726000E-01  3.8966206123000E-01
    32  3.1000000000000E-01 -8.9434584337000E-01  3.9472991472000E-01
    33  3.2000000000000E-01 -9.1624088788000E-01  3.9907843000000E-01
    34  3.3000000000000E-01 -9.3750876690000E-01  4.0269392523000E-01
    35  3.4000000000000E-01 -9.5813537577000E-01  4.0556359584000E-01
    36  3.5000000000000E-01 -9.7810711284000E-01  4.0767553559000E-01
    37  3.6000000000000E-01 -9.9741089388000E-01  4.0901875817000E-01
    38  3.7000000000000E-01 -1.0160341652000E+00  4.0958321647000E-01
    39  3.8000000000000E-01 -1.0339649177000E+00  4.0935982302000E-01
    40  3.9000000000000E-01 -1.0511916998000E+00  4.0834046773000E-01
    41  4.0000000000000E-01 -1.0677036299000E+00  4.0651803559000E-01
    42  4.1000000000000E-01 -1.0834904095000E+00  4.0388642330000E-01
    43  4.2000000000000E-01 -1.0985423347000E+00  4.0044055493000E-01
    44  4.3000000000000E-01 -1.1128503084000E+00  3.9617639640000E-01
    45  4.4000000000000E-01 -1.1264058514000E+00  3.9109096892000E-01
    46  4.5000000000000E-01 -1.1392011132000E+00  3.8518236124000E-01
    47  4.6000000000000E-01 -1.1512288827000E+00  3.7844974079000E-01
    48  4.7000000000000E-01 -1.1624825977000E+00  3.7089336340000E-01
    49  4.8000000000000E-01 -1.1729563544000E+00  3.6251458187000E-01
    50  4.9000000000000E-01 -1.1826449160000E+00  3.5331585262000E-01
    51  5.0000000000000E-01 -1.1915437216000E+00  3.4330074272000E-01
    52  5.1000000000000E-01 -1.1996488936000E+00  3.3247393361000E-01
    53  5.2000000000000E-01 -1.2069572437000E+00  3.2084122305000E-01
    54  5.3000000000000E-01 -1.2134662807000E+00  3.0840952816000E-01
    55  5.4000000000000E-01 -1.2191742158000E+00  2.9518688476000E-01
    56  5.5000000000000E-01 -1.2240799658000E+00  2.8118244413000E-01
    57  5.6000000000000E-01 -1.2281831615000E+00  2.6640647301000E-01
    58  5.7000000000000E-01 -1.2314841453000E+00  2.5087034437000E-01
    59  5.8000000000000E-01 -1.2339839806000E+00  2.3458653526000E-01
    60  5.9000000000000E-01 -1.2356844471000E+00  2.1756861449000E-01
    61  6.0000000000000E-01 -1.2365880479000E+00  1.9983123564000E-01
    62  6.1000000000000E-01 -1.2366980051000E+00  1.8139012346000E-01
    63  6.2000000000000E-01 -1.2360182619000E+00  1.6226206125000E-01
    64  6.3000000000000E-01 -1.2345534811000E+00  1.4246487511000E-01
    65  6.4000000000000E-01 -1.2323090411000E+00  1.2201741784000E-01
    66  6.5000000000000E-01 -1.2292910345000E+00  1.0093954909000E-01
    67  6.6000000000000E-01 -1.2255062637000E+00  7.9252114750000E-02
    68  6.7000000000000E-01 -1.2209622350000E+00  5.6976925920000E-02
    69  6.8000000000000E-01 -1.2156671535000E+00  3.4136735737000E-02
    70  6.9000000000000E-01 -1.2096299166000E+00  1.0755208585000E-02
    71  7.0000000000000E-01 -1.2028601053000E+00 -1.3143102503000E-02
    72  7.1000000000000E-01 -1.1953679763000E+00 -3.7532786363000E-02
    73  7.2000000000000E-01 -1.1871644521000E+00 -6.2387603244000E-02
    74  7.3000000000000E-01 -1.1782611109000E+00 -8.7680519228000E-02
    75  7.4000000000000E-01 -1.1686701743000E+00 -1.1338374303000E-01
    76  7.5000000000000E-01 -1.1584044957000E+00 -1.3946875680000E-01
    77  7.6000000000000E-01 -1.1474775468000E+00 -1.6590635521000E-01
    78  7.7000000000000E-01 -1.1359034034000E+00 -1.9266668417000E-01
    79  7.8000000000000E-01 -1.1236967304000E+00 -2.1971928107000E-01
    80  7.9000000000000E-01 -1.1108727662000E+00 -2.4703311637000E-01
    81  8.0000000000000E-01 -1.0974473051000E+00 -2.7457663648000E-01
    82  8.1000000000000E-01 -1.0834366805000E+00 -3.0231780796000E-01
    83  8.2000000000000E-01 -1.0688577459000E+00 -3.3022416286000E-01
    84  8.3000000000000E-01 -1.0537278559000E+00 -3.5826284518000E-01
    85  8.4000000000000E-01 -1.0380648462000E+00 -3.8640065842000E-01
    86  8.5000000000000E-01 -1.0218870123000E+00 -4.1460411405000E-01
    87  8.6000000000000E-01 -1.0052130888000E+00 -4.4283948090000E-01
    88  8.7000000000000E-01 -9.8806222648000E-01 -4.7107283540000E-01
    89  8.8000000000000E-01 -9.7045396969000E-01 -4.9927011243000E-01
    90  8.9000000000000E-01 -9.5240823286000E-01 -5.2739715698000E-01
    91  9.0000000000000E-01 -9.3394527622000E-01 -5.5541977618000E-01
    92  9.1000000000000E-01 -9.1508568122000E-01 -5.8330379192000E-01
    93  9.2000000000000E-01 -8.9585032518000E-01 -6.1101509368000E-01
    94  9.3000000000000E-01 -8.7626035566000E-01 -6.3851969170000E-01
    95  9.4000000000000E-01 -8.5633716425000E-01 -6.6578377017000E-01
    96  9.5000000000000E-01 -8.3610236008000E-01 -6.9277374043000E-01
    97  9.6000000000000E-01 -8.1557774291000E-01 -7.1945629400000E-01
    98  9.7000000000000E-01 -7.9478527608000E-01 -7.4579845531000E-01
    99  9.8000000000000E-01 -7.7374706898000E-01 -7.7176761168000E-01
   100  9.9000000000000E-01 -7.5248532829000E-01 -7.9733161452000E-01
   101  1.0000000000000E+00 -7.3102233515000E-01 -8.2245881770000E-01
   102  1.0100000000000E+00 -7.0938042834000E-01 -8.4711810380000E-01
   103  1.0200000000000E+00 -6.8758197073000E-01 -8.7127894687000E-01
   104  1.0300000000000E+00 -6.6564932165000E-01 -8.9491146112000E-01
   105  1.0400000000000E+00 -6.4360482754000E-01 -9.1798641052000E-01
   106  1.0500000000000E+00 -6.2147075608000E-01 -9.4047533716000E-01
   107  1.0600000000000E+00 -5.9926926863000E-01 -9.6235060387000E-01
   108  1.0700000000000E+00 -5.7702242447000E-01 -9.8358537289000E-01
   109  1.0800000000000E+00 -5.5475214081000E-01 -1.0041536764000E+00
   110  1.0900000000000E+00 -5.3248020551000E-01 -1.0240303816000E+00
   111  1.1000000000000E+00 -5.1022814493000E-01 -1.0431914396000E+00
   112  1.1100000000000E+00 -4.8801726238000E-01 -1.0616137913000E+00
   113  1.1200000000000E+00 -4.6586862597000E-01 -1.0792753803000E+00
   114  1.1300000000000E+00 -4.4380307389000E-01 -1.0961551333000E+00
   115  1.1400000000000E+00 -4.2184108975000E-01 -1.1122331819000E+00
   116  1.1500000000000E+00 -4.0000279623000E-01 -1.1274908527000E+00
   117  1.1600000000000E+00 -3.7830799985000E-01 -1.1419105717000E+00
   118  1.1700000000000E+00 -3.5677621796000E-01 -1.1554758112000E+00
   119  1.1800000000000E+00 -3.3542642306000E-01 -1.1681715244000E+00
   120  1.1900000000000E+00 -3.1427719994000E-01 -1.1799838450000E+00
   121  1.2000000000000E+00 -2.9334676220000E-01 -1.1909000527000E+00
   122  1.2100000000000E+00 -2.7265285389000E-01 -1.2009087309000E+00
   123  1.2200000000000E+00 -2.5221260699000E-01 -1.2099999722000E+00
   124  1.2300000000000E+00 -2.3204275269000E-01 -1.2181650168000E+00
   125  1.2400000000000E+00 -2.1215960059000E-01 -1.2253962881000E+00
   126  1.2500000000000E+00 -1.9257867030000E-01 -1.2316879363000E+00
   127  1.2600000000000E+00 -1.7331506396000E-01 -1.2370352382000E+00
   128  1.2700000000000E+00 -1.5438346168000E-01 -1.2414346163000E+00
   129  1.2800000000000E+00 -1.3579763825000E-01 -1.2448843086000E+00
   130  1.2900000000000E+00 -1.1757095235000E-01 -1.2473836341000E+00
   131  1.3000000000000E+00 -9.9716275260000E-02 -1.2489331105000E+00
   132  1.3100000000000E+00 -8.2245534811000E-02 -1.2495350242000E+00
   133  1.3200000000000E+00 -6.5170264166000E-02 -1.2491926781000E+00
   134  1.3300000000000E+00 -4.8501362453000E-02 -1.2479107123000E+00
   135  1.3400000000000E+00 -3.2248845063000E-02 -1.2456953497000E+00
   136  1.3500000000000E+00 -1.6422365424000E-02 -1.2425537685000E+00
   137  1.3600000000000E+00 -1.0307085877000E-03 -1.2384946738000E+00
   138  1.3700000000000E+00  1.3918046224000E-02 -1.2335280457000E+00
   139  1.3800000000000E+00  2.8416167687000E-02 -1.2276648036000E+00
   140  1.3900000000000E+00  4.2457082664000E-02 -1.2209175405000E+00
   141  1.4000000000000E+00  5.6034539834000E-02 -1.2132997010000E+00
   142  1.4100000000000E+00  6.9143070847000E-02 -1.2048260125000E+00
   143  1.4200000000000E+00  8.1778041106000E-02 -1.1955124179000E+00
   144  1.4300000000000E+00  9.3935109253000E-02 -1.1853757304000E+00
   145  1.4400000000000E+00  1.0561111347000E-01 -1.1744341318000E+00
   146  1.4500000000000E+00  1.1680316337000E-01 -1.1627066017000E+00
   147  1.4600000000000E+00  1.2750923753000E-01 -1.1502132413000E+00
   148  1.4700000000000E+00  1.3772797724000E-01 -1.1369750586000E+00
   149  1.4800000000000E+00  1.4745849931000E-01 -1.1230139905000E+00
   150  1.4900000000000E+00  1.5670089928000E-01 -1.1083528350000E+00
   151  1.5000000000000E+00  1.6545550086000E-01 -1.0930152639000E+00
   152  1.5100000000000E+00  1.7372368358000E-01 -1.0770256566000E+00
   153  1.5200000000000E+00  1.8150710931000E-01 -1.0604092163000E+00
   154  1.5300000000000E+00  1.8880826892000E-01 -1.0431917765000E+00
   155  1.5400000000000E+00  1.9563014598000E-01 -1.0253998203000E+00
   156  1.5500000000000E+00  2.0197632151000E-01 -1.0070605083000E+00
   157  1.5600000000000E+00  2.0785101912000E-01 -9.8820134667000E-01
   158  1.5700000000000E+00  2.1325888924000E-01 -9.6885068145000E-01
   159  1.5800000000000E+00  2.1820530413000E-01 -9.4903679104000E-01
   160  1.5900000000000E+00  2.2269595788000E-01 -9.2878904726000E-01
   161  1.6000000000000E+00  2.2673727403000E-01 -9.0813627076000E-01
   162  1.6100000000000E+00  2.3033596114000E-01 -8.8710865194000E-01
   163  1.6200000000000E+00  2.3349939067000E-01 -8.6573540513000E-01
   164  1.6300000000000E+00  2.3623524918000E-01 -8.4404719118000E-01
   165  1.6400000000000E+00  2.3855176201000E-01 -8.2207354817000E-01
   166  1.6500000000000E+00  2.4045752024000E-01 -7.9984536029000E-01
   167  1.6600000000000E+00  2.4196153581000E-01 -7.7739227394000E-01
   168  1.6700000000000E+00  2.4307322042000E-01 -7.5474521343000E-01
   169  1.6800000000000E+00  2.4380229660000E-01 -7.3193370253000E-01
   170  1.6900000000000E+00  2.4415891636000E-01 -7.0898854541000E-01
   171  1.7000000000000E+00  2.4415342689000E-01 -6.8593889809000E-01
   172  1.7100000000000E+00  2.4379664593000E-01 -6.6281530862000E-01
   173  1.7200000000000E+00  2.4309944881000E-01 -6.3964630819000E-01
   174  1.7300000000000E+00  2.4207325176000E-01 -6.1646207705000E-01
   175  1.7400000000000E+00  2.4072935114000E-01 -5.9329025621000E-01
   176  1.7500000000000E+00  2.3907970263000E-01 -5.7016056860000E-01
   177  1.7600000000000E+00  2.3713590743000E-01 -5.4709950104000E-01
   178  1.7700000000000E+00  2.3491040737000E-01 -5.2413623588000E-01
   179  1.7800000000000E+00  2.3241503069000E-01 -5.0129603329000E-01
   180  1.7900000000000E+00  2.2966252609000E-01 -4.7860693481000E-01
   181  1.8000000000000E+00  2.2666497988000E-01 -4.5609332658000E-01
   182  1.8100000000000E+00  2.2343528314000E-01 -4.3378167916000E-01
   183  1.8200000000000E+00  2.1998575999000E-01 -4.1169554062000E-01
   184  1.8300000000000E+00  2.1632928626000E-01 -3.8985948800000E-01
   185  1.8400000000000E+00  2.1247842172000E-01 -3.6829629656000E-01
   186  1.8500000000000E+00  2.0844585597000E-01 -3.4702833190000E-01
   187  1.8600000000000E+00  2.0424439624000E-01 -3.2607767183000E-01
   188  1.8700000000000E+00  1.9988636915000E-01 -3.0546418220000E-01
   189  1.8800000000000E+00  1.9538484563000E-01 -2.8520929954000E-01
   190  1.8900000000000E+00  1.9075166620000E-01 -2.6533028920000E-01
   191  1.9000000000000E+00  1.8600003244000E-01 -2.4584757506000E-01
   192  1.9100000000000E+00  1.8114146916000E-01 -2.2677649634000E-01
   193  1.9200000000000E+00  1.7618871151000E-01 -2.0813497093000E-01
   194  1.9300000000000E+00  1.7115343579000E-01 -1.8993772202000E-01
   195  1.9400000000000E+00  1.6604754709000E-01 -1.7219945951000E-01
   196  1.9500000000000E+00  1.6088296703000E-01 -1.5493447286000E-01
   197  1.9600000000000E+00  1.5567055754000E-01 -1.3815404159000E-01
   198  1.9700000000000E+00  1.5042254027000E-01 -1.2187206880000E-01
   199  1.9800000000000E+00  1.4514889014000E-01 -1.0609700368000E-01
   200  1.9900000000000E+00  1.3986119632000E-01 -9.0840323432000E-02
   201  2.0000000000000E+00  1.3456949512000E-01 -7.6109826411000E-02
   202  2.0100000000000E+00  1.2928405867000E-01 -6.1913320565000E-02
   203  2.0200000000000E+00  1.2401529273000E-01 -4.8258497731000E-02
   204  2.0300000000000E+00  1.1877198583000E-01 -3.5149463986000E-02
   205  2.0400000000000E+00  1.1356465710000E-01 -2.2593194077000E-02
   206  2.0500000000000E+00  1.0840125001000E-01 -1.0591526857000E-02
   207  2.0600000000000E+00  1.0329096838000E-01  8.5183805851000E-04
   208  2.0700000000000E+00  9.8242216127000E-02  1.1734950086000E-02
   209  2.0800000000000E+00  9.3262248341000E-02  2.2058222278000E-02
   210  2.0900000000000E+00  8.8360036809000E-02  3.1819595516000E-02
   211  2.1000000000000E+00  8.3541425082000E-02  4.1022433523000E-02
   212  2.1100000000000E+00  7.8813997159000E-02  4.9667720033000E-02
   213  2.1200000000000E+00  7.4184167318000E-02  5.7758563838000E-02
   214  2.1300000000000E+00  6.9657251149000E-02  6.5300091407000E-02
   215  2.1400000000000E+00  6.5240339601000E-02  7.2295213532000E-02
   216  2.1500000000000E+00  6.0937207617000E-02  7.8751871834000E-02
   217  2.1600000000000E+00  5.6753276983000E-02  8.4676086263000E-02
   218  2.1700000000000E+00  5.2693129996000E-02  9.0075325929000E-02
   219  2.1800000000000E+00  4.8759784943000E-02  9.4959464989000E-02
   220  2.1900000000000E+00  4.4958045371000E-02  9.9336463565000E-02
   221  2.2000000000000E+00  4.1289876242000E-02  1.0321811110000E-01
   222  2.2100000000000E+00  3.7757959097000E-02  1.0661568513000E-01
   223  2.2200000000000E+00  3.4365293921000E-02  1.0954042319000E-01
   224  2.2300000000000E+00  3.1112296738000E-02  1.1200686668000E-01
   225  2.2400000000000E+00  2.8001102637000E-02  1.1402798639000E-01
   226  2.2500000000000E+00  2.5032209030000E-02  1.1561885157000E-01
   227  2.2600000000000E+00  2.2205182450000E-02  1.1679587250000E-01
   228  2.2700000000000E+00  1.9521241631000E-02  1.1757410648000E-01
   229  2.2800000000000E+00  1.6978461503000E-02  1.1797211851000E-01
   230  2.2900000000000E+00  1.4575788383000E-02  1.1800797943000E-01
   231  2.3000000000000E+00  1.2312584214000E-02  1.1769973679000E-01
   232  2.3100000000000E+00  1.0185494009000E-02  1.1706812389000E-01
   233  2.3200000000000E+00  8.1924223549000E-03  1.1613378832000E-01
   234  2.3300000000000E+00  6.3306762538000E-03  1.1491727813000E-01
   235  2.3400000000000E+00  4.5965832418000E-03  1.1343866005000E-01
   236  2.3500000000000E+00  2.9869333819000E-03  1.1172066290000E-01
   237  2.3600000000000E+00  1.4981657111000E-03  1.0978233538000E-01
   238  2.3700000000000E+00  1.2656782930000E-04  1.0764215010000E-01
   239  2.3800000000000E+00 -1.1316010939000E-03  1.0532251624000E-01
   240  2.3900000000000E+00 -2.2801701268000E-03  1.0283947963000E-01
   241  2.4000000000000E+00 -3.3230591899000E-03  1.0021053824000E-01
   242  2.4100000000000E+00 -4.2644031628000E-03  9.7457165598000E-02
   243  2.4200000000000E+00 -5.1080774561000E-03  9.4592344515000E-02
   244  2.4300000000000E+00 -5.8582008772000E-03  9.1632859480000E-02
   245  2.4400000000000E+00 -6.5191130339000E-03  8.8597563610000E-02
   246  2.4500000000000E+00 -7.0946642163000E-03  8.5497795915000E-02
   247  2.4600000000000E+00 -7.5890877764000E-03  8.2348827891000E-02
   248  2.4700000000000E+00 -8.0067797894000E-03  7.9166906058000E-02
   249  2.4800000000000E+00 -8.3514934520000E-03  7.5961611136000E-02
   250  2.4900000000000E+00 -8.6274827290000E-03  7.2746435192000E-02
   251  2.5000000000000E+00 -8.8390956277000E-03  6.9535166825000E-02
   252  2.5100000000000E+00 -8.9899138442000E-03  6.6335523455000E-02
   253  2.5200000000000E+00 -9.0841119710000E-03  6.3158994264000E-02
   254  2.5300000000000E+00 -9.1259270823000E-03  6.0017148538000E-02
   255  2.5400000000000E+00 -9.1186935144000E-03  5.6915767591000E-02
   256  2.5500000000000E+00 -9.0664039989000E-03  5.3864170975000E-02
   257  2.5600000000000E+00 -8.9731585299000E-03  5.0871994201000E-02
   258  2.5700000000000E+00 -8.8419693631000E-03  4.7943060373000E-02
   259  2.5800000000000E+00 -8.6765459161000E-03  4.5084422986000E-02
   260  2.5900000000000E+00 -8.4808544296000E-03  4.2304072296000E-02
   261  2.6000000000000E+00 -8.2575152564000E-03  3.9603918192000E-02
   262  2.6100000000000E+00 -8.0098577760000E-03  3.6988735360000E-02
   263  2.6200000000000E+00 -7.7417380216000E-03  3.4465116578000E-02
   264  2.6300000000000E+00 -7.4553240666000E-03  3.2033183494000E-02
   265  2.6400000000000E+00 -7.1535046570000E-03  2.9695602058000E-02
   266  2.6500000000000E+00 -6.8399765209000E-03  2.7457475223000E-02
   267  2.6600000000000E+00 -6.5164912644000E-03  2.5317607682000E-02
   268  2.6700000000000E+00 -6.1855172705000E-03  2.3276951748000E-02
   269  2.6800000000000E+00 -5.8502560935000E-03  2.1338301816000E-02
   270  2.6900000000000E+00 -5.5123814035000E-03  1.9500317250000E-02
   271  2.7000000000000E+00 -5.1737961507000E-03  1.7762156118000E-02
   272  2.7100000000000E+00 -4.8371241672000E-03  1.6124503129000E-02
   273  2.7200000000000E+00 -4.5040534995000E-03  1.4585974081000E-02
   274  2.7300000000000E+00 -4.1758768081000E-03  1.3144258752000E-02
   275  2.7400000000000E+00 -3.8545720165000E-03  1.1798246334000E-02
   276  2.7500000000000E+00 -3.5419170701000E-03  1.0546429877000E-02
   277  2.7600000000000E+00 -3.2385737174000E-03  9.3854473065000E-03
   278  2.7700000000000E+00 -2.9458272883000E-03  8.3128219278000E-03
   279  2.7800000000000E+00 -2.6655881983000E-03  7.3266713151000E-03
   280  2.7900000000000E+00 -2.3978957252000E-03  6.4230575919000E-03
   281  2.8000000000000E+00 -2.1435390067000E-03  5.5987695961000E-03
   282  2.8100000000000E+00 -1.9039102856000E-03  4.8508433514000E-03
   283  2.8200000000000E+00 -1.6791134730000E-03  4.1755850819000E-03
   284  2.8300000000000E+00 -1.4692923316000E-03  3.5692572592000E-03
   285  2.8400000000000E+00 -1.2751083640000E-03  3.0281597876000E-03
   286  2.8500000000000E+00 -1.0969552487000E-03  2.5485390234000E-03
   287  2.8600000000000E+00 -9.3429505872000E-04  2.1266109532000E-03
   288  2.8700000000000E+00 -7.8706556643000E-04  1.7585120519000E-03
   289  2.8800000000000E+00 -6.5588605823000E-04  1.4399139409000E-03
   290  2.8900000000000E+00 -5.3965051850000E-04  1.1674364423000E-03
   291  2.9000000000000E+00 -4.3787155015000E-04  9.3727145025000E-04
   292  2.9100000000000E+00 -3.5044350382000E-04  7.4512656724000E-04
   293  2.9200000000000E+00 -2.7665588414000E-04  5.8731325695000E-04
   294  2.9300000000000E+00 -2.1532410923000E-04  4.6060131051000E-04
   295  2.9400000000000E+00 -1.6560810469000E-04  3.6129368146000E-04
   296  2.9500000000000E+00 -1.2717549203000E-04  2.8481659253000E-04
   297  2.9600000000000E+00 -9.8211508234000E-05  2.2885955496000E-04
   298  2.9700000000000E+00 -7.7471250877000E-05  1.9013726356000E-04
   299  2.9800000000000E+00 -6.4889759453000E-05  1.6758429126000E-04
   300  2.9900000000000E+00 -5.8546639668000E-05  1.5661136816000E-04
   301  3.0000000000000E+00 -5.4893487825000E-05  1.4953572765000E-04
   302  3.0100000000000E+00 -5.1460180798000E-05  1.4070211150000E-04
   303  3.0200000000000E+00 -3.7639356298000E-05  1.0376735593000E-04
   304  3.0300000000000E+00 -2.2458560851000E-05  6.2337384992000E-05
   305  3.0400000000000E+00 -8.1513138447000E-06  2.2746606140000E-05
   306  3.0500000000000E+00  1.4091098483000E-06 -3.8523677963000E-06
   307  3.0600000000000E+00  3.3737184123000E-06 -9.2234144703000E-06
   308  3.0700000000000E+00  2.8091196550000E-06 -7.6798569735000E-06
   309  3.0800000000000E+00  7.8256263640000E-07 -2.1394493145000E-06
   310  3.0900000000000E+00  0.0000000000000E+00  0.0000000000000E+00
   311  3.1000000000000E+00  0.0000000000000E+00  0.0000000000000E+00
   312  3.1100000000000E+00  0.0000000000000E+00  0.0000000000000E+00
   313  3.1200000000000E+00  0.0000000000000E+00  0.0000000000000E+00
   314  3.1300000000000E+00  0.0000000000000E+00  0.0000000000000E+00
   315  3.1400000000000E+00  0.0000000000000E+00  0.0000000000000E+00
   316  3.1500000000000E+00  0.0000000000000E+00  0.0000000000000E+00
   317  3.1600000000000E+00  0.0000000000000E+00  0.0000000000000E+00
   318  3.1700000000000E+00  0.0000000000000E+00  0.0000000000000E+00
   319  3.1800000000000E+00  0.0000000000000E+00  0.0000000000000E+00
   320  3.1900000000000E+00  0.0000000000000E+00  0.0000000000000E+00
   321  3.2000000000000E+00  0.0000000000000E+00  0.0000000000000E+00
   322  3.2100000000000E+00  0.0000000000000E+00  0.0000000000000E+00
   323  3.2200000000000E+00  0.0000000000000E+00  0.0000000000000E+00
   324  3.2300000000000E+00  0.0000000000000E+00  0.0000000000000E+00
   325  3.2400000000000E+00  0.0000000000000E+00  0.0000000000000E+00
   326  3.2500000000000E+00  0.0000000000000E+00  0.0000000000000E+00
   327  3.2600000000000E+00  0.0000000000000E+00  0.0000000000000E+00
   328  3.2700000000000E+00  0.0000000000000E+00  0.0000000000000E+00
   329  3.2800000000000E+00  0.0000000000000E+00  0.0000000000000E+00
   330  3.2900000000000E+00  0.0000000000000E+00  0.0000000000000E+00
   331  3.3000000000000E+00  0.0000000000000E+00  0.0000000000000E+00
   332  3.3100000000000E+00  0.0000000000000E+00  0.0000000000000E+00
   333  3.3200000000000E+00  0.0000000000000E+00  0.0000000000000E+00
   334  3.3300000000000E+00  0.0000000000000E+00  0.0000000000000E+00
   335  3.3400000000000E+00  0.0000000000000E+00  0.0000000000000E+00
   336  3.3500000000000E+00  0.0000000000000E+00  0.0000000000000E+00
   337  3.3600000000000E+00  0.0000000000000E+00  0.0000000000000E+00
   338  3.3700000000000E+00  0.0000000000000E+00  0.0000000000000E+00
   339  3.3800000000000E+00  0.0000000000000E+00  0.0000000000000E+00
   340  3.3900000000000E+00  0.0000000000000E+00  0.0000000000000E+00
   341  3.4000000000000E+00  0.0000000000000E+00  0.0000000000000E+00
   342  3.4100000000000E+00  0.0000000000000E+00  0.0000000000000E+00
   343  3.4200000000000E+00  0.0000000000000E+00  0.0000000000000E+00
   344  3.4300000000000E+00  0.0000000000000E+00  0.0000000000000E+00
   345  3.4400000000000E+00  0.0000000000000E+00  0.0000000000000E+00
   346  3.4500000000000E+00  0.0000000000000E+00  0.0000000000000E+00
   347  3.4600000000000E+00  0.0000000000000E+00  0.0000000000000E+00
   348  3.4700000000000E+00  0.0000000000000E+00  0.0000000000000E+00
   349  3.4800000000000E+00  0.0000000000000E+00  0.0000000000000E+00
   350  3.4900000000000E+00  0.0000000000000E+00  0.0000000000000E+00
   351  3.5000000000000E+00  0.0000000000000E+00  0.0000000000000E+00
   352  3.5100000000000E+00  0.0000000000000E+00  0.0000000000000E+00
   353  3.5200000000000E+00  0.0000000000000E+00  0.0000000000000E+00
   354  3.5300000000000E+00  0.0000000000000E+00  0.0000000000000E+00
   355  3.5400000000000E+00  0.0000000000000E+00  0.0000000000000E+00
   356  3.5500000000000E+00  0.0000000000000E+00  0.0000000000000E+00
   357  3.5600000000000E+00  0.0000000000000E+00  0.0000000000000E+00
   358  3.5700000000000E+00  0.0000000000000E+00  0.0000000000000E+00
   359  3.5800000000000E+00  0.0000000000000E+00  0.0000000000000E+00
   360  3.5900000000000E+00  0.0000000000000E+00  0.0000000000000E+00
   361  3.6000000000000E+00  0.0000000000000E+00  0.0000000000000E+00
   362  3.6100000000000E+00  0.0000000000000E+00  0.0000000000000E+00
   363  3.6200000000000E+00  0.0000000000000E+00  0.0000000000000E+00
   364  3.6300000000000E+00  0.0000000000000E+00  0.0000000000000E+00
   365  3.6400000000000E+00  0.0000000000000E+00  0.0000000000000E+00
   366  3.6500000000000E+00  0.0000000000000E+00  0.0000000000000E+00
   367  3.6600000000000E+00  0.0000000000000E+00  0.0000000000000E+00
   368  3.6700000000000E+00  0.0000000000000E+00  0.0000000000000E+00
   369  3.6800000000000E+00  0.0000000000000E+00  0.0000000000000E+00
   370  3.6900000000000E+00  0.0000000000000E+00  0.0000000000000E+00
   371  3.7000000000000E+00  0.0000000000000E+00  0.0000000000000E+00
   372  3.7100000000000E+00  0.0000000000000E+00  0.0000000000000E+00
   373  3.7200000000000E+00  0.0000000000000E+00  0.0000000000000E+00
   374  3.7300000000000E+00  0.0000000000000E+00  0.0000000000000E+00
   375  3.7400000000000E+00  0.0000000000000E+00  0.0000000000000E+00
   376  3.7500000000000E+00  0.0000000000000E+00  0.0000000000000E+00
   377  3.7600000000000E+00  0.0000000000000E+00  0.0000000000000E+00
   378  3.7700000000000E+00  0.0000000000000E+00  0.0000000000000E+00
   379  3.7800000000000E+00  0.0000000000000E+00  0.0000000000000E+00
   380  3.7900000000000E+00  0.0000000000000E+00  0.0000000000000E+00
   381  3.8000000000000E+00  0.0000000000000E+00  0.0000000000000E+00
   382  3.8100000000000E+00  0.0000000000000E+00  0.0000000000000E+00
   383  3.8200000000000E+00  0.0000000000000E+00  0.0000000000000E+00
   384  3.8300000000000E+00  0.0000000000000E+00  0.0000000000000E+00
   385  3.8400000000000E+00  0.0000000000000E+00  0.0000000000000E+00
   386  3.8500000000000E+00  0.0000000000000E+00  0.0000000000000E+00
   387  3.8600000000000E+00  0.0000000000000E+00  0.0000000000000E+00
   388  3.8700000000000E+00  0.0000000000000E+00  0.0000000000000E+00
   389  3.8800000000000E+00  0.0000000000000E+00  0.0000000000000E+00
   390  3.8900000000000E+00  0.0000000000000E+00  0.0000000000000E+00
   391  3.9000000000000E+00  0.0000000000000E+00  0.0000000000000E+00
   392  3.9100000000000E+00  0.0000000000000E+00  0.0000000000000E+00
   393  3.9200000000000E+00  0.0000000000000E+00  0.0000000000000E+00
   394  3.9300000000000E+00  0.0000000000000E+00  0.0000000000000E+00
   395  3.9400000000000E+00  0.0000000000000E+00  0.0000000000000E+00
   396  3.9500000000000E+00  0.0000000000000E+00  0.0000000000000E+00
   397  3.9600000000000E+00  0.0000000000000E+00  0.0000000000000E+00
   398  3.9700000000000E+00  0.0000000000000E+00  0.0000000000000E+00
   399  3.9800000000000E+00  0.0000000000000E+00  0.0000000000000E+00
   400  3.9900000000000E+00  0.0000000000000E+00  0.0000000000000E+00
   401  4.0000000000000E+00  0.0000000000000E+00  0.0000000000000E+00
   402  4.0100000000000E+00  0.0000000000000E+00  0.0000000000000E+00
   403  4.0200000000000E+00  0.0000000000000E+00  0.0000000000000E+00
   404  4.0300000000000E+00  0.0000000000000E+00  0.0000000000000E+00
   405  4.0400000000000E+00  0.0000000000000E+00  0.0000000000000E+00
   406  4.0500000000000E+00  0.0000000000000E+00  0.0000000000000E+00
   407  4.0600000000000E+00  0.0000000000000E+00  0.0000000000000E+00
   408  4.0700000000000E+00  0.0000000000000E+00  0.0000000000000E+00
   409  4.0800000000000E+00  0.0000000000000E+00  0.0000000000000E+00
   410  4.0900000000000E+00  0.0000000000000E+00  0.0000000000000E+00
   411  4.1000000000000E+00  0.0000000000000E+00  0.0000000000000E+00
   412  4.1100000000000E+00  0.0000000000000E+00  0.0000000000000E+00
   413  4.1200000000000E+00  0.0000000000000E+00  0.0000000000000E+00
   414  4.1300000000000E+00  0.0000000000000E+00  0.0000000000000E+00
   415  4.1400000000000E+00  0.0000000000000E+00  0.0000000000000E+00
   416  4.1500000000000E+00  0.0000000000000E+00  0.0000000000000E+00
   417  4.1600000000000E+00  0.0000000000000E+00  0.0000000000000E+00
   418  4.1700000000000E+00  0.0000000000000E+00  0.0000000000000E+00
   419  4.1800000000000E+00  0.0000000000000E+00  0.0000000000000E+00
   420  4.1900000000000E+00  0.0000000000000E+00  0.0000000000000E+00
   421  4.2000000000000E+00  0.0000000000000E+00  0.0000000000000E+00
   422  4.2100000000000E+00  0.0000000000000E+00  0.0000000000000E+00
   423  4.2200000000000E+00  0.0000000000000E+00  0.0000000000000E+00