Cs   ONCVPSP-2.1.1   r_core=    2.56157 2.30082 2.19361
    55.0000   9.0000   150415   zatom,zion,pspd
    8   11   2   4   600   0   pspcod,pspxc,lmax,lloc,mmax,r2well
    5.99000000   0.00000000   0.00000000   rchrg fchrg qchrg
    2   2   2   0   0   nproj
    1   1   extension_switch
       0                         6.1897570460000E+00  7.9861011360000E-01
     1  0.0000000000000E+00  0.0000000000000E+00  0.0000000000000E+00
     2  1.0000000000000E-02 -2.1815798086000E-02 -2.5239751569000E-03
     3  2.0000000000000E-02 -4.3639951224000E-02 -5.0048928287000E-03
     4  3.0000000000000E-02 -6.5480735934000E-02 -7.3999201444000E-03
     5  4.0000000000000E-02 -8.7346271956000E-02 -9.6666725846000E-03
     6  5.0000000000000E-02 -1.0924444460000E-01 -1.1763435966000E-02
     7  6.0000000000000E-02 -1.3118282798000E-01 -1.3649385807000E-02
     8  7.0000000000000E-02 -1.5316860937000E-01 -1.5284803209000E-02
     9  8.0000000000000E-02 -1.7520851510000E-01 -1.6631286414000E-02
    10  9.0000000000000E-02 -1.9730873810000E-01 -1.7651957198000E-02
    11  1.0000000000000E-01 -2.1947486747000E-01 -1.8311661279000E-02
    12  1.1000000000000E-01 -2.4171182039000E-01 -1.8577161956000E-02
    13  1.2000000000000E-01 -2.6402377645000E-01 -1.8417326189000E-02
    14  1.3000000000000E-01 -2.8641411491000E-01 -1.7803302402000E-02
    15  1.4000000000000E-01 -3.0888535486000E-01 -1.6708689216000E-02
    16  1.5000000000000E-01 -3.3143909875000E-01 -1.5109694550000E-02
    17  1.6000000000000E-01 -3.5407597940000E-01 -1.2985284244000E-02
    18  1.7000000000000E-01 -3.7679561064000E-01 -1.0317319840000E-02
    19  1.8000000000000E-01 -3.9959654199000E-01 -7.0906846263000E-03
    20  1.9000000000000E-01 -4.2247621731000E-01 -3.2933976991000E-03
    21  2.0000000000000E-01 -4.4543093788000E-01  1.0832847529000E-03
    22  2.1000000000000E-01 -4.6845582971000E-01  6.0447810014000E-03
    23  2.2000000000000E-01 -4.9154481567000E-01  1.1593109084000E-02
    24  2.3000000000000E-01 -5.1469059215000E-01  1.7726825856000E-02
    25  2.4000000000000E-01 -5.3788461072000E-01  2.4440980285000E-02
    26  2.5000000000000E-01 -5.6111706451000E-01  3.1727080871000E-02
    27  2.6000000000000E-01 -5.8437687993000E-01  3.9573078474000E-02
    28  2.7000000000000E-01 -6.0765171314000E-01  4.7963363025000E-02
    29  2.8000000000000E-01 -6.3092795195000E-01  5.6878775909000E-02
    30  2.9000000000000E-01 -6.5419072274000E-01  6.6296637027000E-02
    31  3.0000000000000E-01 -6.7742390261000E-01  7.6190786888000E-02
    32  3.1000000000000E-01 -7.0061013677000E-01  8.6531643668000E-02
    33  3.2000000000000E-01 -7.2373086102000E-01  9.7286274921000E-02
    34  3.3000000000000E-01 -7.4676632956000E-01  1.0841848451000E-01
    35  3.4000000000000E-01 -7.6969564757000E-01  1.1988891301000E-01
    36  3.5000000000000E-01 -7.9249680920000E-01  1.3165515346000E-01
    37  3.6000000000000E-01 -8.1514673998000E-01  1.4367187931000E-01
    38  3.7000000000000E-01 -8.3762134492000E-01  1.5589098864000E-01
    39  3.8000000000000E-01 -8.5989556007000E-01  1.6826175748000E-01
    40  3.9000000000000E-01 -8.8194340935000E-01  1.8073100774000E-01
    41  4.0000000000000E-01 -9.0373806656000E-01  1.9324328980000E-01
    42  4.1000000000000E-01 -9.2525191991000E-01  2.0574107089000E-01
    43  4.2000000000000E-01 -9.4645664169000E-01  2.1816493786000E-01
    44  4.3000000000000E-01 -9.6732326157000E-01  2.3045380930000E-01
    45  4.4000000000000E-01 -9.8782224346000E-01  2.4254515677000E-01
    46  4.5000000000000E-01 -1.0079235658000E+00  2.5437523476000E-01
    47  4.6000000000000E-01 -1.0275968047000E+00  2.6587931817000E-01
    48  4.7000000000000E-01 -1.0468112191000E+00  2.7699194225000E-01
    49  4.8000000000000E-01 -1.0655358422000E+00  2.8764716233000E-01
    50  4.9000000000000E-01 -1.0837395717000E+00  2.9777880571000E-01
    51  5.0000000000000E-01 -1.1013912619000E+00  3.0732072878000E-01
    52  5.1000000000000E-01 -1.1184598133000E+00  3.1620706467000E-01
    53  5.2000000000000E-01 -1.1349142836000E+00  3.2437253005000E-01
    54  5.3000000000000E-01 -1.1507239716000E+00  3.3175265409000E-01
    55  5.4000000000000E-01 -1.1658585124000E+00  3.3828403598000E-01
    56  5.5000000000000E-01 -1.1802879992000E+00  3.4390467587000E-01
    57  5.6000000000000E-01 -1.1939830420000E+00  3.4855412775000E-01
    58  5.7000000000000E-01 -1.2069149170000E+00  3.5217390178000E-01
    59  5.8000000000000E-01 -1.2190556048000E+00  3.5470755515000E-01
    60  5.9000000000000E-01 -1.2303779526000E+00  3.5610112569000E-01
    61  6.0000000000000E-01 -1.2408557023000E+00  3.5630319129000E-01
    62  6.1000000000000E-01 -1.2504636448000E+00  3.5526527373000E-01
    63  6.2000000000000E-01 -1.2591776735000E+00  3.5294196480000E-01
    64  6.3000000000000E-01 -1.2669748713000E+00  3.4929114076000E-01
    65  6.4000000000000E-01 -1.2738336422000E+00  3.4427429232000E-01
    66  6.5000000000000E-01 -1.2797337442000E+00  3.3785658983000E-01
    67  6.6000000000000E-01 -1.2846563756000E+00  3.3000708739000E-01
    68  6.7000000000000E-01 -1.2885843032000E+00  3.2069903040000E-01
    69  6.8000000000000E-01 -1.2915018810000E+00  3.0990987625000E-01
    70  6.9000000000000E-01 -1.2933951325000E+00  2.9762147808000E-01
    71  7.0000000000000E-01 -1.2942518125000E+00  2.8382021061000E-01
    72  7.1000000000000E-01 -1.2940615054000E+00  2.6849718172000E-01
    73  7.2000000000000E-01 -1.2928156346000E+00  2.5164822202000E-01
    74  7.3000000000000E-01 -1.2905075288000E+00  2.3327400801000E-01
    75  7.4000000000000E-01 -1.2871324665000E+00  2.1338013140000E-01
    76  7.5000000000000E-01 -1.2826877133000E+00  1.9197714377000E-01
    77  7.6000000000000E-01 -1.2771725555000E+00  1.6908059134000E-01
    78  7.7000000000000E-01 -1.2705883481000E+00  1.4471107290000E-01
    79  7.8000000000000E-01 -1.2629385094000E+00  1.1889417442000E-01
    80  7.9000000000000E-01 -1.2542285467000E+00  9.1660470339000E-02
    81  8.0000000000000E-01 -1.2444660665000E+00  6.3045483095000E-02
    82  8.1000000000000E-01 -1.2336607774000E+00  3.3089623948000E-02
    83  8.2000000000000E-01 -1.2218244877000E+00  1.8381152766000E-03
    84  8.3000000000000E-01 -1.2089710958000E+00 -3.0659105536000E-02
    85  8.4000000000000E-01 -1.1951165751000E+00 -6.4347500369000E-02
    86  8.5000000000000E-01 -1.1802789512000E+00 -9.9168062482000E-02
    87  8.6000000000000E-01 -1.1644782745000E+00 -1.3505746610000E-01
    88  8.7000000000000E-01 -1.1477365851000E+00 -1.7194823304000E-01
    89  8.8000000000000E-01 -1.1300778725000E+00 -2.0976891583000E-01
    90  8.9000000000000E-01 -1.1115280284000E+00 -2.4844429680000E-01
    91  9.0000000000000E-01 -1.0921147944000E+00 -2.8789560242000E-01
    92  9.1000000000000E-01 -1.0718677034000E+00 -3.2804073212000E-01
    93  9.2000000000000E-01 -1.0508180152000E+00 -3.6879450090000E-01
    94  9.3000000000000E-01 -1.0289986474000E+00 -4.1006889456000E-01
    95  9.4000000000000E-01 -1.0064441017000E+00 -4.5177332150000E-01
    96  9.5000000000000E-01 -9.8319038675000E-01 -4.9381489775000E-01
    97  9.6000000000000E-01 -9.5927492550000E-01 -5.3609878451000E-01
    98  9.7000000000000E-01 -9.3473647045000E-01 -5.7852843008000E-01
    99  9.8000000000000E-01 -9.0961500986000E-01 -6.2100589318000E-01
   100  9.9000000000000E-01 -8.8395167060000E-01 -6.6343215457000E-01
   101  1.0000000000000E+00 -8.5778861778000E-01 -7.0570743317000E-01
   102  1.0100000000000E+00 -8.3116895672000E-01 -7.4773148375000E-01
   103  1.0200000000000E+00 -8.0413665775000E-01 -7.8940380159000E-01
   104  1.0300000000000E+00 -7.7673633500000E-01 -8.3062440661000E-01
   105  1.0400000000000E+00 -7.4901323572000E-01 -8.7129373512000E-01
   106  1.0500000000000E+00 -7.2101309886000E-01 -9.1131309231000E-01
   107  1.0600000000000E+00 -6.9278204267000E-01 -9.5058496877000E-01
   108  1.0700000000000E+00 -6.6436654653000E-01 -9.8901302671000E-01
   109  1.0800000000000E+00 -6.3581307298000E-01 -1.0265033413000E+00
   110  1.0900000000000E+00 -6.0716814302000E-01 -1.0629640050000E+00
   111  1.1000000000000E+00 -5.7847820381000E-01 -1.0983055004000E+00
   112  1.1100000000000E+00 -5.4978958388000E-01 -1.1324407771000E+00
   113  1.1200000000000E+00 -5.2114825083000E-01 -1.1652859670000E+00
   114  1.1300000000000E+00 -4.9259956432000E-01 -1.1967610450000E+00
   115  1.1400000000000E+00 -4.6418843022000E-01 -1.2267892462000E+00
   116  1.1500000000000E+00 -4.3595924754000E-01 -1.2552971828000E+00
   117  1.1600000000000E+00 -4.0795551081000E-01 -1.2822159708000E+00
   118  1.1700000000000E+00 -3.8021965072000E-01 -1.3074815578000E+00
   119  1.1800000000000E+00 -3.5279325681000E-01 -1.3310339811000E+00
   120  1.1900000000000E+00 -3.2571719766000E-01 -1.3528170095000E+00
   121  1.2000000000000E+00 -2.9903048626000E-01 -1.3727812062000E+00
   122  1.2100000000000E+00 -2.7277110058000E-01 -1.3908814931000E+00
   123  1.2200000000000E+00 -2.4697599605000E-01 -1.4070771130000E+00
   124  1.2300000000000E+00 -2.2168031834000E-01 -1.4213336394000E+00
   125  1.2400000000000E+00 -1.9691751067000E-01 -1.4336224941000E+00
   126  1.2500000000000E+00 -1.7271989447000E-01 -1.4439194192000E+00
   127  1.2600000000000E+00 -1.4911792754000E-01 -1.4522062950000E+00
   128  1.2700000000000E+00 -1.2613989333000E-01 -1.4584716614000E+00
   129  1.2800000000000E+00 -1.0381292632000E-01 -1.4627082064000E+00
   130  1.2900000000000E+00 -8.2162056011000E-02 -1.4649149761000E+00
   131  1.3000000000000E+00 -6.1209954858000E-02 -1.4650976590000E+00
   132  1.3100000000000E+00 -4.0978185283000E-02 -1.4632658056000E+00
   133  1.3200000000000E+00 -2.1485722365000E-02 -1.4594359391000E+00
   134  1.3300000000000E+00 -2.7493669908000E-03 -1.4536303503000E+00
   135  1.3400000000000E+00  1.5215127159000E-02 -1.4458749343000E+00
   136  1.3500000000000E+00  3.2395303597000E-02 -1.4362033203000E+00
   137  1.3600000000000E+00  4.8780153177000E-02 -1.4246531111000E+00
   138  1.3700000000000E+00  6.4360300278000E-02 -1.4112664169000E+00
   139  1.3800000000000E+00  7.9129587930000E-02 -1.3960920441000E+00
   140  1.3900000000000E+00  9.3082707156000E-02 -1.3791816729000E+00
   141  1.4000000000000E+00  1.0621716703000E-01 -1.3605927533000E+00
   142  1.4100000000000E+00  1.1853245314000E-01 -1.3403867866000E+00
   143  1.4200000000000E+00  1.3002926204000E-01 -1.3186287096000E+00
   144  1.4300000000000E+00  1.4071155808000E-01 -1.2953885061000E+00
   145  1.4400000000000E+00  1.5058395828000E-01 -1.2707386650000E+00
   146  1.4500000000000E+00  1.5965384556000E-01 -1.2447557746000E+00
   147  1.4600000000000E+00  1.6793008135000E-01 -1.2175190281000E+00
   148  1.4700000000000E+00  1.7542309471000E-01 -1.1891107418000E+00
   149  1.4800000000000E+00  1.8214570419000E-01 -1.1596152460000E+00
   150  1.4900000000000E+00  1.8811137162000E-01 -1.1291198919000E+00
   151  1.5000000000000E+00  1.9333626570000E-01 -1.0977127463000E+00
   152  1.5100000000000E+00  1.9783714206000E-01 -1.0654845897000E+00
   153  1.5200000000000E+00  2.0163278629000E-01 -1.0325265666000E+00
   154  1.5300000000000E+00  2.0474299817000E-01 -9.9893109730000E-01
   155  1.5400000000000E+00  2.0718899029000E-01 -9.6479155755000E-01
   156  1.5500000000000E+00  2.0899311783000E-01 -9.3020028850000E-01
   157  1.5600000000000E+00  2.1017882025000E-01 -8.9525195791000E-01
   158  1.5700000000000E+00  2.1077048942000E-01 -8.6003719657000E-01
   159  1.5800000000000E+00  2.1079356031000E-01 -8.2465091828000E-01
   160  1.5900000000000E+00  2.1027395154000E-01 -7.8918070200000E-01
   161  1.6000000000000E+00  2.0923877644000E-01 -7.5372005786000E-01
   162  1.6100000000000E+00  2.0771505712000E-01 -7.1835293786000E-01
   163  1.6200000000000E+00  2.0573110876000E-01 -6.8316917772000E-01
   164  1.6300000000000E+00  2.0331472670000E-01 -6.4824872748000E-01
   165  1.6400000000000E+00  2.0049495078000E-01 -6.1367624506000E-01
   166  1.6500000000000E+00  1.9729995125000E-01 -5.7952644884000E-01
   167  1.6600000000000E+00  1.9375904964000E-01 -5.4587775061000E-01
   168  1.6700000000000E+00  1.8990035452000E-01 -5.1279835137000E-01
   169  1.6800000000000E+00  1.8575306002000E-01 -4.8035952758000E-01
   170  1.6900000000000E+00  1.8134473604000E-01 -4.4862163533000E-01
   171  1.7000000000000E+00  1.7670408234000E-01 -4.1764810541000E-01
   172  1.7100000000000E+00  1.7185761285000E-01 -3.8749009679000E-01
   173  1.7200000000000E+00  1.6683321383000E-01 -3.5820265547000E-01
   174  1.7300000000000E+00  1.6165578753000E-01 -3.2982638749000E-01
   175  1.7400000000000E+00  1.5635213808000E-01 -3.0240756912000E-01
   176  1.7500000000000E+00  1.5094496687000E-01 -2.7597492178000E-01
   177  1.7600000000000E+00  1.4545977585000E-01 -2.5056569149000E-01
   178  1.7700000000000E+00  1.3991645173000E-01 -2.2619544063000E-01
   179  1.7800000000000E+00  1.3433898689000E-01 -2.0289206250000E-01
   180  1.7900000000000E+00  1.2874421137000E-01 -1.8065815513000E-01
   181  1.8000000000000E+00  1.2315329747000E-01 -1.5950800757000E-01
   182  1.8100000000000E+00  1.1758131926000E-01 -1.3943755757000E-01
   183  1.8200000000000E+00  1.1204616497000E-01 -1.2044814249000E-01
   184  1.8300000000000E+00  1.0656183487000E-01 -1.0253186867000E-01
   185  1.8400000000000E+00  1.0114341314000E-01 -8.5681595740000E-02
   186  1.8500000000000E+00  9.5803836127000E-02 -6.9885270493000E-02
   187  1.8600000000000E+00  9.0555284538000E-02 -5.5128133507000E-02
   188  1.8700000000000E+00  8.5409748488000E-02 -4.1394259035000E-02
   189  1.8800000000000E+00  8.0376448343000E-02 -2.8662183523000E-02
   190  1.8900000000000E+00  7.5466482067000E-02 -1.6912176255000E-02
   191  1.9000000000000E+00  7.0686391990000E-02 -6.1175724240000E-03
   192  1.9100000000000E+00  6.6045737113000E-02  3.7459009850000E-03
   193  1.9200000000000E+00  6.1549488116000E-02  1.2707951708000E-02
   194  1.9300000000000E+00  5.7204490524000E-02  2.0797872105000E-02
   195  1.9400000000000E+00  5.3015245018000E-02  2.8047211823000E-02
   196  1.9500000000000E+00  4.8985635862000E-02  3.4489084336000E-02
   197  1.9600000000000E+00  4.5119750323000E-02  4.0157235446000E-02
   198  1.9700000000000E+00  4.1418802284000E-02  4.5086699871000E-02
   199  1.9800000000000E+00  3.7886210850000E-02  4.9313927567000E-02
   200  1.9900000000000E+00  3.4521499583000E-02  5.2874517465000E-02
   201  2.0000000000000E+00  3.1325894553000E-02  5.5806393714000E-02
   202  2.0100000000000E+00  2.8298848986000E-02  5.8146297341000E-02
   203  2.0200000000000E+00  2.5439152737000E-02  5.9931407558000E-02
   204  2.0300000000000E+00  2.2746089165000E-02  6.1200606526000E-02
   205  2.0400000000000E+00  2.0216677854000E-02  6.1988788401000E-02
   206  2.0500000000000E+00  1.7849198133000E-02  6.2335695054000E-02
   207  2.0600000000000E+00  1.5640112532000E-02  6.2275494231000E-02
   208  2.0700000000000E+00  1.3586034321000E-02  6.1844696333000E-02
   209  2.0800000000000E+00  1.1683399284000E-02  6.1079796438000E-02
   210  2.0900000000000E+00  9.9275385644000E-03  6.0011912820000E-02
   211  2.1000000000000E+00  8.3143422413000E-03  5.8678793589000E-02
   212  2.1100000000000E+00  6.8386904092000E-03  5.7108825329000E-02
   213  2.1200000000000E+00  5.4955173140000E-03  5.5334313225000E-02
   214  2.1300000000000E+00  4.2796086396000E-03  5.3386822022000E-02
   215  2.1400000000000E+00  3.1853584690000E-03  5.1290914999000E-02
   216  2.1500000000000E+00  2.2070830847000E-03  4.9078781138000E-02
   217  2.1600000000000E+00  1.3390690830000E-03  4.6772194774000E-02
   218  2.1700000000000E+00  5.7539099108000E-04  4.4395649642000E-02
   219  2.1800000000000E+00 -9.0029516891000E-05  4.1975208587000E-02
   220  2.1900000000000E+00 -6.6291150590000E-04  3.9526926163000E-02
   221  2.2000000000000E+00 -1.1495763595000E-03  3.7074564622000E-02
   222  2.2100000000000E+00 -1.5558247261000E-03  3.4634284273000E-02
   223  2.2200000000000E+00 -1.8873853889000E-03  3.2220090845000E-02
   224  2.2300000000000E+00 -2.1508268207000E-03  2.9852959123000E-02
   225  2.2400000000000E+00 -2.3511831320000E-03  2.7539946542000E-02
   226  2.2500000000000E+00 -2.4944272343000E-03  2.5294761137000E-02
   227  2.2600000000000E+00 -2.5863805077000E-03  2.3129568792000E-02
   228  2.2700000000000E+00 -2.6317954919000E-03  2.1049060034000E-02
   229  2.2800000000000E+00 -2.6366042490000E-03  1.9064156709000E-02
   230  2.2900000000000E+00 -2.6055285080000E-03  1.7179290473000E-02
   231  2.3000000000000E+00 -2.5430204173000E-03  1.5397128339000E-02
   232  2.3100000000000E+00 -2.4548156181000E-03  1.3725396129000E-02
   233  2.3200000000000E+00 -2.3443366876000E-03  1.2162506472000E-02
   234  2.3300000000000E+00 -2.2158702305000E-03  1.0709757885000E-02
   235  2.3400000000000E+00 -2.0742496954000E-03  9.3699027189000E-03
   236  2.3500000000000E+00 -1.9220669306000E-03  8.1388780430000E-03
   237  2.3600000000000E+00 -1.7632654521000E-03  7.0159897503000E-03
   238  2.3700000000000E+00 -1.6014004856000E-03  5.9995547631000E-03
   239  2.3800000000000E+00 -1.4384743984000E-03  5.0844780876000E-03
   240  2.3900000000000E+00 -1.2778898265000E-03  4.2678949439000E-03
   241  2.4000000000000E+00 -1.1219035854000E-03  3.5453147701000E-03
   242  2.4100000000000E+00 -9.7189525515000E-04  2.9109683939000E-03
   243  2.4200000000000E+00 -8.3062218481000E-04  2.3601406869000E-03
   244  2.4300000000000E+00 -6.9909277861000E-04  1.8870156484000E-03
   245  2.4400000000000E+00 -5.7801951340000E-04  1.4854896285000E-03
   246  2.4500000000000E+00 -4.6942542609000E-04  1.1494658757000E-03
   247  2.4600000000000E+00 -3.7316385704000E-04  8.7298475906000E-04
   248  2.4700000000000E+00 -2.8923212932000E-04  6.4995897427000E-04
   249  2.4800000000000E+00 -2.1884866271000E-04  4.7348375168000E-04
   250  2.4900000000000E+00 -1.6082705283000E-04  3.3825659786000E-04
   251  2.5000000000000E+00 -1.1440375985000E-04  2.3856378590000E-04
   252  2.5100000000000E+00 -7.9940492762000E-05  1.6731194343000E-04
   253  2.5200000000000E+00 -5.5333823104000E-05  1.2025823868000E-04
   254  2.5300000000000E+00 -3.9020225076000E-05  9.2394257246000E-05
   255  2.5400000000000E+00 -3.0927973236000E-05  7.9253559717000E-05
   256  2.5500000000000E+00 -2.7443728402000E-05  7.4252173063000E-05
   257  2.5600000000000E+00 -2.5725155523000E-05  7.1178917718000E-05
   258  2.5700000000000E+00 -1.8203744017000E-05  5.1251583394000E-05
   259  2.5800000000000E+00 -9.3724314350000E-06  2.6777074298000E-05
   260  2.5900000000000E+00 -1.5296772511000E-06  4.4196883605000E-06
   261  2.6000000000000E+00  1.4388345872000E-06 -3.9853805547000E-06
   262  2.6100000000000E+00  1.5570356077000E-06 -4.3127816699000E-06
   263  2.6200000000000E+00  4.8441479761000E-07 -1.3417646003000E-06
   264  2.6300000000000E+00  0.0000000000000E+00  0.0000000000000E+00
   265  2.6400000000000E+00  0.0000000000000E+00  0.0000000000000E+00
   266  2.6500000000000E+00  0.0000000000000E+00  0.0000000000000E+00
   267  2.6600000000000E+00  0.0000000000000E+00  0.0000000000000E+00
   268  2.6700000000000E+00  0.0000000000000E+00  0.0000000000000E+00
   269  2.6800000000000E+00  0.0000000000000E+00  0.0000000000000E+00
   270  2.6900000000000E+00  0.0000000000000E+00  0.0000000000000E+00
   271  2.7000000000000E+00  0.0000000000000E+00  0.0000000000000E+00
   272  2.7100000000000E+00  0.0000000000000E+00  0.0000000000000E+00
   273  2.7200000000000E+00  0.0000000000000E+00  0.0000000000000E+00
   274  2.7300000000000E+00  0.0000000000000E+00  0.0000000000000E+00
   275  2.7400000000000E+00  0.0000000000000E+00  0.0000000000000E+00
   276  2.7500000000000E+00  0.0000000000000E+00  0.0000000000000E+00
   277  2.7600000000000E+00  0.0000000000000E+00  0.0000000000000E+00
   278  2.7700000000000E+00  0.0000000000000E+00  0.0000000000000E+00
   279  2.7800000000000E+00  0.0000000000000E+00  0.0000000000000E+00
   280  2.7900000000000E+00  0.0000000000000E+00  0.0000000000000E+00
   281  2.8000000000000E+00  0.0000000000000E+00  0.0000000000000E+00
   282  2.8100000000000E+00  0.0000000000000E+00  0.0000000000000E+00
   283  2.8200000000000E+00  0.0000000000000E+00  0.0000000000000E+00
   284  2.8300000000000E+00  0.0000000000000E+00  0.0000000000000E+00
   285  2.8400000000000E+00  0.0000000000000E+00  0.0000000000000E+00
   286  2.8500000000000E+00  0.0000000000000E+00  0.0000000000000E+00
   287  2.8600000000000E+00  0.0000000000000E+00  0.0000000000000E+00
   288  2.8700000000000E+00  0.0000000000000E+00  0.0000000000000E+00
   289  2.8800000000000E+00  0.0000000000000E+00  0.0000000000000E+00
   290  2.8900000000000E+00  0.0000000000000E+00  0.0000000000000E+00
   291  2.9000000000000E+00  0.0000000000000E+00  0.0000000000000E+00
   292  2.9100000000000E+00  0.0000000000000E+00  0.0000000000000E+00
   293  2.9200000000000E+00  0.0000000000000E+00  0.0000000000000E+00
   294  2.9300000000000E+00  0.0000000000000E+00  0.0000000000000E+00
   295  2.9400000000000E+00  0.0000000000000E+00  0.0000000000000E+00
   296  2.9500000000000E+00  0.0000000000000E+00  0.0000000000000E+00
   297  2.9600000000000E+00  0.0000000000000E+00  0.0000000000000E+00
   298  2.9700000000000E+00  0.0000000000000E+00  0.0000000000000E+00
   299  2.9800000000000E+00  0.0000000000000E+00  0.0000000000000E+00
   300  2.9900000000000E+00  0.0000000000000E+00  0.0000000000000E+00
   301  3.0000000000000E+00  0.0000000000000E+00  0.0000000000000E+00
   302  3.0100000000000E+00  0.0000000000000E+00  0.0000000000000E+00
   303  3.0200000000000E+00  0.0000000000000E+00  0.0000000000000E+00
   304  3.0300000000000E+00  0.0000000000000E+00  0.0000000000000E+00
   305  3.0400000000000E+00  0.0000000000000E+00  0.0000000000000E+00
   306  3.0500000000000E+00  0.0000000000000E+00  0.0000000000000E+00
   307  3.0600000000000E+00  0.0000000000000E+00  0.0000000000000E+00
   308  3.0700000000000E+00  0.0000000000000E+00  0.0000000000000E+00
   309  3.0800000000000E+00  0.0000000000000E+00  0.0000000000000E+00
   310  3.0900000000000E+00  0.0000000000000E+00  0.0000000000000E+00
   311  3.1000000000000E+00  0.0000000000000E+00  0.0000000000000E+00
   312  3.1100000000000E+00  0.0000000000000E+00  0.0000000000000E+00
   313  3.1200000000000E+00  0.0000000000000E+00  0.0000000000000E+00
   314  3.1300000000000E+00  0.0000000000000E+00  0.0000000000000E+00
   315  3.1400000000000E+00  0.0000000000000E+00  0.0000000000000E+00
   316  3.1500000000000E+00  0.0000000000000E+00  0.0000000000000E+00
   317  3.1600000000000E+00  0.0000000000000E+00  0.0000000000000E+00
   318  3.1700000000000E+00  0.0000000000000E+00  0.0000000000000E+00
   319  3.1800000000000E+00  0.0000000000000E+00  0.0000000000000E+00
   320  3.1900000000000E+00  0.0000000000000E+00  0.0000000000000E+00
   321  3.2000000000000E+00  0.0000000000000E+00  0.0000000000000E+00
   322  3.2100000000000E+00  0.0000000000000E+00  0.0000000000000E+00
   323  3.2200000000000E+00  0.0000000000000E+00  0.0000000000000E+00
   324  3.2300000000000E+00  0.0000000000000E+00  0.0000000000000E+00
   325  3.2400000000000E+00  0.0000000000000E+00  0.0000000000000E+00
   326  3.2500000000000E+00  0.0000000000000E+00  0.0000000000000E+00
   327  3.2600000000000E+00  0.0000000000000E+00  0.0000000000000E+00
   328  3.2700000000000E+00  0.0000000000000E+00  0.0000000000000E+00
   329  3.2800000000000E+00  0.0000000000000E+00  0.0000000000000E+00
   330  3.2900000000000E+00  0.0000000000000E+00  0.0000000000000E+00
   331  3.3000000000000E+00  0.0000000000000E+00  0.0000000000000E+00
   332  3.3100000000000E+00  0.0000000000000E+00  0.0000000000000E+00
   333  3.3200000000000E+00  0.0000000000000E+00  0.0000000000000E+00
   334  3.3300000000000E+00  0.0000000000000E+00  0.0000000000000E+00
   335  3.3400000000000E+00  0.0000000000000E+00  0.0000000000000E+00
   336  3.3500000000000E+00  0.0000000000000E+00  0.0000000000000E+00
   337  3.3600000000000E+00  0.0000000000000E+00  0.0000000000000E+00
   338  3.3700000000000E+00  0.0000000000000E+00  0.0000000000000E+00
   339  3.3800000000000E+00  0.0000000000000E+00  0.0000000000000E+00
   340  3.3900000000000E+00  0.0000000000000E+00  0.0000000000000E+00
   341  3.4000000000000E+00  0.0000000000000E+00  0.0000000000000E+00
   342  3.4100000000000E+00  0.0000000000000E+00  0.0000000000000E+00
   343  3.4200000000000E+00  0.0000000000000E+00  0.0000000000000E+00
   344  3.4300000000000E+00  0.0000000000000E+00  0.0000000000000E+00
   345  3.4400000000000E+00  0.0000000000000E+00  0.0000000000000E+00
   346  3.4500000000000E+00  0.0000000000000E+00  0.0000000000000E+00
   347  3.4600000000000E+00  0.0000000000000E+00  0.0000000000000E+00
   348  3.4700000000000E+00  0.0000000000000E+00  0.0000000000000E+00
   349  3.4800000000000E+00  0.0000000000000E+00  0.0000000000000E+00
   350  3.4900000000000E+00  0.0000000000000E+00  0.0000000000000E+00
   351  3.5000000000000E+00  0.0000000000000E+00  0.0000000000000E+00
   352  3.5100000000000E+00  0.0000000000000E+00  0.0000000000000E+00
   353  3.5200000000000E+00  0.0000000000000E+00  0.0000000000000E+00
   354  3.5300000000000E+00  0.0000000000000E+00  0.0000000000000E+00
   355  3.5400000000000E+00  0.0000000000000E+00  0.0000000000000E+00
   356  3.5500000000000E+00  0.0000000000000E+00  0.0000000000000E+00
   357  3.5600000000000E+00  0.0000000000000E+00  0.0000000000000E+00
   358  3.5700000000000E+00  0.0000000000000E+00  0.0000000000000E+00
   359  3.5800000000000E+00  0.0000000000000E+00  0.0000000000000E+00
   360  3.5900000000000E+00  0.0000000000000E+00  0.0000000000000E+00
   361  3.6000000000000E+00  0.0000000000000E+00  0.0000000000000E+00
   362  3.6100000000000E+00  0.0000000000000E+00  0.0000000000000E+00
   363  3.6200000000000E+00  0.0000000000000E+00  0.0000000000000E+00
   364  3.6300000000000E+00  0.0000000000000E+00  0.0000000000000E+00
   365  3.6400000000000E+00  0.0000000000000E+00  0.0000000000000E+00
   366  3.6500000000000E+00  0.0000000000000E+00  0.0000000000000E+00
   367  3.6600000000000E+00  0.0000000000000E+00  0.0000000000000E+00
   368  3.6700000000000E+00  0.0000000000000E+00  0.0000000000000E+00
   369  3.6800000000000E+00  0.0000000000000E+00  0.0000000000000E+00
   370  3.6900000000000E+00  0.0000000000000E+00  0.0000000000000E+00
   371  3.7000000000000E+00  0.0000000000000E+00  0.0000000000000E+00
   372  3.7100000000000E+00  0.0000000000000E+00  0.0000000000000E+00
   373  3.7200000000000E+00  0.0000000000000E+00  0.0000000000000E+00
   374  3.7300000000000E+00  0.0000000000000E+00  0.0000000000000E+00
   375  3.7400000000000E+00  0.0000000000000E+00  0.0000000000000E+00
   376  3.7500000000000E+00  0.0000000000000E+00  0.0000000000000E+00
   377  3.7600000000000E+00  0.0000000000000E+00  0.0000000000000E+00
   378  3.7700000000000E+00  0.0000000000000E+00  0.0000000000000E+00
   379  3.7800000000000E+00  0.0000000000000E+00  0.0000000000000E+00
   380  3.7900000000000E+00  0.0000000000000E+00  0.0000000000000E+00
   381  3.8000000000000E+00  0.0000000000000E+00  0.0000000000000E+00
   382  3.8100000000000E+00  0.0000000000000E+00  0.0000000000000E+00
   383  3.8200000000000E+00  0.0000000000000E+00  0.0000000000000E+00
   384  3.8300000000000E+00  0.0000000000000E+00  0.0000000000000E+00
   385  3.8400000000000E+00  0.0000000000000E+00  0.0000000000000E+00
   386  3.8500000000000E+00  0.0000000000000E+00  0.0000000000000E+00
   387  3.8600000000000E+00  0.0000000000000E+00  0.0000000000000E+00
   388  3.8700000000000E+00  0.0000000000000E+00  0.0000000000000E+00
   389  3.8800000000000E+00  0.0000000000000E+00  0.0000000000000E+00
   390  3.8900000000000E+00  0.0000000000000E+00  0.0000000000000E+00
   391  3.9000000000000E+00  0.0000000000000E+00  0.0000000000000E+00
   392  3.9100000000000E+00  0.0000000000000E+00  0.0000000000000E+00
   393  3.9200000000000E+00  0.0000000000000E+00  0.0000000000000E+00
   394  3.9300000000000E+00  0.0000000000000E+00  0.0000000000000E+00
   395  3.9400000000000E+00  0.0000000000000E+00  0.0000000000000E+00
   396  3.9500000000000E+00  0.0000000000000E+00  0.0000000000000E+00
   397  3.9600000000000E+00  0.0000000000000E+00  0.0000000000000E+00
   398  3.9700000000000E+00  0.0000000000000E+00  0.0000000000000E+00
   399  3.9800000000000E+00  0.0000000000000E+00  0.0000000000000E+00
   400  3.9900000000000E+00  0.0000000000000E+00  0.0000000000000E+00
   401  4.0000000000000E+00  0.0000000000000E+00  0.0000000000000E+00
   402  4.0100000000000E+00  0.0000000000000E+00  0.0000000000000E+00
   403  4.0200000000000E+00  0.0000000000000E+00  0.0000000000000E+00
   404  4.0300000000000E+00  0.0000000000000E+00  0.0000000000000E+00
   405  4.0400000000000E+00  0.0000000000000E+00  0.0000000000000E+00
   406  4.0500000000000E+00  0.0000000000000E+00  0.0000000000000E+00
   407  4.0600000000000E+00  0.0000000000000E+00  0.0000000000000E+00
   408  4.0700000000000E+00  0.0000000000000E+00  0.0000000000000E+00
   409  4.0800000000000E+00  0.0000000000000E+00  0.0000000000000E+00
   410  4.0900000000000E+00  0.0000000000000E+00  0.0000000000000E+00
   411  4.1000000000000E+00  0.0000000000000E+00  0.0000000000000E+00
   412  4.1100000000000E+00  0.0000000000000E+00  0.0000000000000E+00
   413  4.1200000000000E+00  0.0000000000000E+00  0.0000000000000E+00
   414  4.1300000000000E+00  0.0000000000000E+00  0.0000000000000E+00
   415  4.1400000000000E+00  0.0000000000000E+00  0.0000000000000E+00
   416  4.1500000000000E+00  0.0000000000000E+00  0.0000000000000E+00
   417  4.1600000000000E+00  0.0000000000000E+00  0.0000000000000E+00
   418  4.1700000000000E+00  0.0000000000000E+00  0.0000000000000E+00
   419  4.1800000000000E+00  0.0000000000000E+00  0.0000000000000E+00
   420  4.1900000000000E+00  0.0000000000000E+00  0.0000000000000E+00
   421  4.2000000000000E+00  0.0000000000000E+00  0.0000000000000E+00
   422  4.2100000000000E+00  0.0000000000000E+00  0.0000000000000E+00
   423  4.2200000000000E+00  0.0000000000000E+00  0.0000000000000E+00