Ba   ONCVPSP-2.1.1   r_core=    2.93784 2.93784 2.97309 2.54602
    56.0000   10.0000   150105   zatom,zion,pspd
    8   11   3   4   600   0   pspcod,pspxc,lmax,lloc,mmax,r2well
    5.99000000   0.00000000   0.00000000   rchrg fchrg qchrg
    2   2   2   2   0   nproj
    1   1   extension_switch
       0                         3.9481352301500E+00  5.4395067185000E-01
     1  0.0000000000000E+00  0.0000000000000E+00  0.0000000000000E+00
     2  1.0000000000000E-02 -2.8986019835000E-02  2.8660425321000E-03
     3  2.0000000000000E-02 -5.7959513284000E-02  5.7374918792000E-03
     4  3.0000000000000E-02 -8.6907939263000E-02  8.6196929949000E-03
     5  4.0000000000000E-02 -1.1581872739000E-01  1.1517867363000E-02
     6  5.0000000000000E-02 -1.4467926353000E-01  1.4437051895000E-02
     7  6.0000000000000E-02 -1.7347687570000E-01  1.7382038587000E-02
     8  7.0000000000000E-02 -2.0219882023000E-01  2.0357315177000E-02
     9  8.0000000000000E-02 -2.3083226842000E-01  2.3367007056000E-02
    10  9.0000000000000E-02 -2.5936429376000E-01  2.6414820671000E-02
    11  1.0000000000000E-01 -2.8778185973000E-01  2.9503988651000E-02
    12  1.1000000000000E-01 -3.1607180833000E-01  3.2637216895000E-02
    13  1.2000000000000E-01 -3.4422084934000E-01  3.5816633838000E-02
    14  1.3000000000000E-01 -3.7221555055000E-01  3.9043742115000E-02
    15  1.4000000000000E-01 -4.0004232876000E-01  4.2319372827000E-02
    16  1.5000000000000E-01 -4.2768744198000E-01  4.5643642621000E-02
    17  1.6000000000000E-01 -4.5513698252000E-01  4.9015913750000E-02
    18  1.7000000000000E-01 -4.8237687134000E-01  5.2434757334000E-02
    19  1.8000000000000E-01 -5.0939285354000E-01  5.5897919927000E-02
    20  1.9000000000000E-01 -5.3617049514000E-01  5.9402293632000E-02
    21  2.0000000000000E-01 -5.6269518111000E-01  6.2943889810000E-02
    22  2.1000000000000E-01 -5.8895211478000E-01  6.6517816644000E-02
    23  2.2000000000000E-01 -6.1492631867000E-01  7.0118260539000E-02
    24  2.3000000000000E-01 -6.4060263669000E-01  7.3738471563000E-02
    25  2.4000000000000E-01 -6.6596573785000E-01  7.7370752983000E-02
    26  2.5000000000000E-01 -6.9100012141000E-01  8.1006455056000E-02
    27  2.6000000000000E-01 -7.1569012357000E-01  8.4635972890000E-02
    28  2.7000000000000E-01 -7.4001992569000E-01  8.8248748843000E-02
    29  2.8000000000000E-01 -7.6397356400000E-01  9.1833279086000E-02
    30  2.9000000000000E-01 -7.8753494089000E-01  9.5377124582000E-02
    31  3.0000000000000E-01 -8.1068783770000E-01  9.8866926430000E-02
    32  3.1000000000000E-01 -8.3341592907000E-01  1.0228842557000E-01
    33  3.2000000000000E-01 -8.5570279883000E-01  1.0562648682000E-01
    34  3.3000000000000E-01 -8.7753195720000E-01  1.0886512709000E-01
    35  3.4000000000000E-01 -8.9888685981000E-01  1.1198754812000E-01
    36  3.5000000000000E-01 -9.1975092778000E-01  1.1497617291000E-01
    37  3.6000000000000E-01 -9.4010756963000E-01  1.1781268694000E-01
    38  3.7000000000000E-01 -9.5994020376000E-01  1.2047808201000E-01
    39  3.8000000000000E-01 -9.7923228366000E-01  1.2295270621000E-01
    40  3.9000000000000E-01 -9.9796732282000E-01  1.2521631518000E-01
    41  4.0000000000000E-01 -1.0161289218000E+00  1.2724812830000E-01
    42  4.1000000000000E-01 -1.0337007961000E+00  1.2902688808000E-01
    43  4.2000000000000E-01 -1.0506668053000E+00  1.3053092274000E-01
    44  4.3000000000000E-01 -1.0670109831000E+00  1.3173821189000E-01
    45  4.4000000000000E-01 -1.0827175684000E+00  1.3262645507000E-01
    46  4.5000000000000E-01 -1.0977710370000E+00  1.3317314297000E-01
    47  4.6000000000000E-01 -1.1121561341000E+00  1.3335563114000E-01
    48  4.7000000000000E-01 -1.1258579078000E+00  1.3315121590000E-01
    49  4.8000000000000E-01 -1.1388617430000E+00  1.3253721218000E-01
    50  4.9000000000000E-01 -1.1511533946000E+00  1.3149103117000E-01
    51  5.0000000000000E-01 -1.1627190238000E+00  1.2999026429000E-01
    52  5.1000000000000E-01 -1.1735452335000E+00  1.2801276709000E-01
    53  5.2000000000000E-01 -1.1836191004000E+00  1.2553673508000E-01
    54  5.3000000000000E-01 -1.1929282128000E+00  1.2254079297000E-01
    55  5.4000000000000E-01 -1.2014607081000E+00  1.1900408505000E-01
    56  5.5000000000000E-01 -1.2092052980000E+00  1.1490633654000E-01
    57  5.6000000000000E-01 -1.2161513200000E+00  1.1022797643000E-01
    58  5.7000000000000E-01 -1.2222887517000E+00  1.0495017370000E-01
    59  5.8000000000000E-01 -1.2276082660000E+00  9.9054971411000E-02
    60  5.9000000000000E-01 -1.2321012410000E+00  9.2525311908000E-02
    61  6.0000000000000E-01 -1.2357598184000E+00  8.5345179610000E-02
    62  6.1000000000000E-01 -1.2385769116000E+00  7.7499622225000E-02
    63  6.2000000000000E-01 -1.2405462517000E+00  6.8974865020000E-02
    64  6.3000000000000E-01 -1.2416624153000E+00  5.9758379914000E-02
    65  6.4000000000000E-01 -1.2419208407000E+00  4.9838928641000E-02
    66  6.5000000000000E-01 -1.2413178753000E+00  3.9206678843000E-02
    67  6.6000000000000E-01 -1.2398507893000E+00  2.7853242431000E-02
    68  6.7000000000000E-01 -1.2375177976000E+00  1.5771731251000E-02
    69  6.8000000000000E-01 -1.2343180874000E+00  2.9568282178000E-03
    70  6.9000000000000E-01 -1.2302518475000E+00 -1.0595138011000E-02
    71  7.0000000000000E-01 -1.2253202750000E+00 -2.4886172214000E-02
    72  7.1000000000000E-01 -1.2195255974000E+00 -3.9916554050000E-02
    73  7.2000000000000E-01 -1.2128710853000E+00 -5.5684803884000E-02
    74  7.3000000000000E-01 -1.2053610764000E+00 -7.2187618485000E-02
    75  7.4000000000000E-01 -1.1970009803000E+00 -8.9419854297000E-02
    76  7.5000000000000E-01 -1.1877972866000E+00 -1.0737450303000E-01
    77  7.6000000000000E-01 -1.1777575743000E+00 -1.2604266374000E-01
    78  7.7000000000000E-01 -1.1668905167000E+00 -1.4541352460000E-01
    79  7.8000000000000E-01 -1.1552058841000E+00 -1.6547435017000E-01
    80  7.9000000000000E-01 -1.1427145448000E+00 -1.8621047427000E-01
    81  8.0000000000000E-01 -1.1294284627000E+00 -2.0760529846000E-01
    82  8.1000000000000E-01 -1.1153606933000E+00 -2.2964029634000E-01
    83  8.2000000000000E-01 -1.1005253757000E+00 -2.5229502516000E-01
    84  8.3000000000000E-01 -1.0849377259000E+00 -2.7554713638000E-01
    85  8.4000000000000E-01 -1.0686140227000E+00 -2.9937240235000E-01
    86  8.5000000000000E-01 -1.0515715937000E+00 -3.2374474327000E-01
    87  8.6000000000000E-01 -1.0338287990000E+00 -3.4863625969000E-01
    88  8.7000000000000E-01 -1.0154050113000E+00 -3.7401727241000E-01
    89  8.8000000000000E-01 -9.9632059572000E-01 -3.9985636505000E-01
    90  8.9000000000000E-01 -9.7659688456000E-01 -4.2612043489000E-01
    91  9.0000000000000E-01 -9.5625615091000E-01 -4.5277475037000E-01
    92  9.1000000000000E-01 -9.3532157978000E-01 -4.7978301179000E-01
    93  9.2000000000000E-01 -9.1381723689000E-01 -5.0710741810000E-01
    94  9.3000000000000E-01 -8.9176803517000E-01 -5.3470873892000E-01
    95  9.4000000000000E-01 -8.6919969908000E-01 -5.6254639147000E-01
    96  9.5000000000000E-01 -8.4613872677000E-01 -5.9057852238000E-01
    97  9.6000000000000E-01 -8.2261235025000E-01 -6.1876209404000E-01
    98  9.7000000000000E-01 -7.9864849365000E-01 -6.4705297509000E-01
    99  9.8000000000000E-01 -7.7427573319000E-01 -6.7540602821000E-01
   100  9.9000000000000E-01 -7.4952325456000E-01 -7.0377520244000E-01
   101  1.0000000000000E+00 -7.2442078131000E-01 -7.3211368418000E-01
   102  1.0100000000000E+00 -6.9899855097000E-01 -7.6037395490000E-01
   103  1.0200000000000E+00 -6.7328725735000E-01 -7.8850791411000E-01
   104  1.0300000000000E+00 -6.4731799947000E-01 -8.1646698997000E-01
   105  1.0400000000000E+00 -6.2112224101000E-01 -8.4420222786000E-01
   106  1.0500000000000E+00 -5.9473175604000E-01 -8.7166440685000E-01
   107  1.0600000000000E+00 -5.6817851059000E-01 -8.9880428963000E-01
   108  1.0700000000000E+00 -5.4149468087000E-01 -9.2557258945000E-01
   109  1.0800000000000E+00 -5.1471257526000E-01 -9.5192013490000E-01
   110  1.0900000000000E+00 -4.8786461878000E-01 -9.7779790431000E-01
   111  1.1000000000000E+00 -4.6098321880000E-01 -1.0031573079000E+00
   112  1.1100000000000E+00 -4.3410069117000E-01 -1.0279503436000E+00
   113  1.1200000000000E+00 -4.0724928624000E-01 -1.0521295431000E+00
   114  1.1300000000000E+00 -3.8046114813000E-01 -1.0756480568000E+00
   115  1.1400000000000E+00 -3.5376819939000E-01 -1.0984598944000E+00
   116  1.1500000000000E+00 -3.2720196591000E-01 -1.1205202873000E+00
   117  1.1600000000000E+00 -3.0079371353000E-01 -1.1417854020000E+00
   118  1.1700000000000E+00 -2.7457444120000E-01 -1.1622123523000E+00
   119  1.1800000000000E+00 -2.4857455332000E-01 -1.1817598768000E+00
   120  1.1900000000000E+00 -2.2282391426000E-01 -1.2003882183000E+00
   121  1.2000000000000E+00 -1.9735195111000E-01 -1.2180589064000E+00
   122  1.2100000000000E+00 -1.7218759113000E-01 -1.2347348863000E+00
   123  1.2200000000000E+00 -1.4735876686000E-01 -1.2503815225000E+00
   124  1.2300000000000E+00 -1.2289287701000E-01 -1.2649656441000E+00
   125  1.2400000000000E+00 -9.8816847686000E-02 -1.2784554234000E+00
   126  1.2500000000000E+00 -7.5156267195000E-02 -1.2908221160000E+00
   127  1.2600000000000E+00 -5.1936100674000E-02 -1.3020385965000E+00
   128  1.2700000000000E+00 -2.9180755974000E-02 -1.3120792343000E+00
   129  1.2800000000000E+00 -6.9131234375000E-03 -1.3209217916000E+00
   130  1.2900000000000E+00  1.4844660684000E-02 -1.3285458786000E+00
   131  1.3000000000000E+00  3.6071037109000E-02 -1.3349326182000E+00
   132  1.3100000000000E+00  5.6746265519000E-02 -1.3400670489000E+00
   133  1.3200000000000E+00  7.6851240250000E-02 -1.3439357887000E+00
   134  1.3300000000000E+00  9.6367748815000E-02 -1.3465275537000E+00
   135  1.3400000000000E+00  1.1527937552000E-01 -1.3478348368000E+00
   136  1.3500000000000E+00  1.3357025556000E-01 -1.3478515285000E+00
   137  1.3600000000000E+00  1.5122593449000E-01 -1.3465745360000E+00
   138  1.3700000000000E+00  1.6823344570000E-01 -1.3440038577000E+00
   139  1.3800000000000E+00  1.8458031268000E-01 -1.3401407757000E+00
   140  1.3900000000000E+00  2.0025616232000E-01 -1.3349907315000E+00
   141  1.4000000000000E+00  2.1525134618000E-01 -1.3285608078000E+00
   142  1.4100000000000E+00  2.2955741506000E-01 -1.3208606020000E+00
   143  1.4200000000000E+00  2.4316773642000E-01 -1.3119031841000E+00
   144  1.4300000000000E+00  2.5607606046000E-01 -1.3017026981000E+00
   145  1.4400000000000E+00  2.6827833931000E-01 -1.2902773229000E+00
   146  1.4500000000000E+00  2.7977114593000E-01 -1.2776466334000E+00
   147  1.4600000000000E+00  2.9055248009000E-01 -1.2638329249000E+00
   148  1.4700000000000E+00  3.0062186150000E-01 -1.2488611963000E+00
   149  1.4800000000000E+00  3.0997935988000E-01 -1.2327578029000E+00
   150  1.4900000000000E+00  3.1862721315000E-01 -1.2155525995000E+00
   151  1.5000000000000E+00  3.2656789861000E-01 -1.1972763227000E+00
   152  1.5100000000000E+00  3.3380588288000E-01 -1.1779628080000E+00
   153  1.5200000000000E+00  3.4034623857000E-01 -1.1576471746000E+00
   154  1.5300000000000E+00  3.4619544811000E-01 -1.1363668102000E+00
   155  1.5400000000000E+00  3.5136107918000E-01 -1.1141607792000E+00
   156  1.5500000000000E+00  3.5585159149000E-01 -1.0910698173000E+00
   157  1.5600000000000E+00  3.5967685226000E-01 -1.0671363605000E+00
   158  1.5700000000000E+00  3.6284725548000E-01 -1.0424042601000E+00
   159  1.5800000000000E+00  3.6537474688000E-01 -1.0169187227000E+00
   160  1.5900000000000E+00  3.6727160071000E-01 -9.9072643336000E-01
   161  1.6000000000000E+00  3.6855158617000E-01 -9.6387481405000E-01
   162  1.6100000000000E+00  3.6922883503000E-01 -9.3641290548000E-01
   163  1.6200000000000E+00  3.6931867219000E-01 -9.0838993044000E-01
   164  1.6300000000000E+00  3.6883692781000E-01 -8.7985673518000E-01
   165  1.6400000000000E+00  3.6780033945000E-01 -8.5086390212000E-01
   166  1.6500000000000E+00  3.6622622502000E-01 -8.2146354337000E-01
   167  1.6600000000000E+00  3.6413257313000E-01 -7.9170711539000E-01
   168  1.6700000000000E+00  3.6153798173000E-01 -7.6164748749000E-01
   169  1.6800000000000E+00  3.5846150704000E-01 -7.3133645737000E-01
   170  1.6900000000000E+00  3.5492282916000E-01 -7.0082718725000E-01
   171  1.7000000000000E+00  3.5094186480000E-01 -6.7017123657000E-01
   172  1.7100000000000E+00  3.4653919388000E-01 -6.3942165090000E-01
   173  1.7200000000000E+00  3.4173536210000E-01 -6.0862912858000E-01
   174  1.7300000000000E+00  3.3655168690000E-01 -5.7784625048000E-01
   175  1.7400000000000E+00  3.3100908796000E-01 -5.4712219509000E-01
   176  1.7500000000000E+00  3.2512948064000E-01 -5.1650879365000E-01
   177  1.7600000000000E+00  3.1893388290000E-01 -4.8605302343000E-01
   178  1.7700000000000E+00  3.1244469121000E-01 -4.5580573798000E-01
   179  1.7800000000000E+00  3.0568274186000E-01 -4.2581106604000E-01
   180  1.7900000000000E+00  2.9867078328000E-01 -3.9611859129000E-01
   181  1.8000000000000E+00  2.9142934874000E-01 -3.6676949014000E-01
   182  1.8100000000000E+00  2.8398101424000E-01 -3.3781053888000E-01
   183  1.8200000000000E+00  2.7634621821000E-01 -3.0928086222000E-01
   184  1.8300000000000E+00  2.6854693318000E-01 -2.8122333492000E-01
   185  1.8400000000000E+00  2.6060351091000E-01 -2.5367515456000E-01
   186  1.8500000000000E+00  2.5253694974000E-01 -2.2667449142000E-01
   187  1.8600000000000E+00  2.4436755750000E-01 -2.0025679598000E-01
   188  1.8700000000000E+00  2.3611498607000E-01 -1.7445479311000E-01
   189  1.8800000000000E+00  2.2779955360000E-01 -1.4930235230000E-01
   190  1.8900000000000E+00  2.1943922408000E-01 -1.2482616172000E-01
   191  1.9000000000000E+00  2.1105435501000E-01 -1.0105856661000E-01
   192  1.9100000000000E+00  2.0266133510000E-01 -7.8020830992000E-02
   193  1.9200000000000E+00  1.9427938317000E-01 -5.5740775142000E-02
   194  1.9300000000000E+00  1.8592445233000E-01 -3.4237369201000E-02
   195  1.9400000000000E+00  1.7761364857000E-01 -1.3531707885000E-02
   196  1.9500000000000E+00  1.6936295046000E-01  6.3584143466000E-03
   197  1.9600000000000E+00  1.6118689797000E-01  2.5419323917000E-02
   198  1.9700000000000E+00  1.5310162112000E-01  4.3634221158000E-02
   199  1.9800000000000E+00  1.4511924899000E-01  6.0996073818000E-02
   200  1.9900000000000E+00  1.3725492899000E-01  7.7491710156000E-02
   201  2.0000000000000E+00  1.2951984526000E-01  9.3117171909000E-02
   202  2.0100000000000E+00  1.2192647862000E-01  1.0786636321000E-01
   203  2.0200000000000E+00  1.1448632712000E-01  1.2173573445000E-01
   204  2.0300000000000E+00  1.0720860927000E-01  1.3472700246000E-01
   205  2.0400000000000E+00  1.0010520115000E-01  1.4683716247000E-01
   206  2.0500000000000E+00  9.3182894668000E-02  1.5807358464000E-01
   207  2.0600000000000E+00  8.6451308530000E-02  1.6843887793000E-01
   208  2.0700000000000E+00  7.9917543618000E-02  1.7794070664000E-01
   209  2.0800000000000E+00  7.3587723703000E-02  1.8658906311000E-01
   210  2.0900000000000E+00  6.7469567104000E-02  1.9439172850000E-01
   211  2.1000000000000E+00  6.1566431555000E-02  2.0136417468000E-01
   212  2.1100000000000E+00  5.5884297780000E-02  2.0751828534000E-01
   213  2.1200000000000E+00  5.0426458897000E-02  2.1287042400000E-01
   214  2.1300000000000E+00  4.5195487214000E-02  2.1743857835000E-01
   215  2.1400000000000E+00  4.0195453008000E-02  2.2123921987000E-01
   216  2.1500000000000E+00  3.5426271244000E-02  2.2429465506000E-01
   217  2.1600000000000E+00  3.0890111481000E-02  2.2662504173000E-01
   218  2.1700000000000E+00  2.6587176058000E-02  2.2825314862000E-01
   219  2.1800000000000E+00  2.2516323254000E-02  2.2920369899000E-01
   220  2.1900000000000E+00  1.8678397816000E-02  2.2950020981000E-01
   221  2.2000000000000E+00  1.5070199171000E-02  2.2916996476000E-01
   222  2.2100000000000E+00  1.1690101346000E-02  2.2823971216000E-01
   223  2.2200000000000E+00  8.5358633257000E-03  2.2673707654000E-01
   224  2.2300000000000E+00  5.6030489657000E-03  2.2469134308000E-01
   225  2.2400000000000E+00  2.8888305163000E-03  2.2213191383000E-01
   226  2.2500000000000E+00  3.8814574240000E-04  2.1908911116000E-01
   227  2.2600000000000E+00 -1.9044183637000E-03  2.1559395133000E-01
   228  2.2700000000000E+00 -3.9931435946000E-03  2.1167832465000E-01
   229  2.2800000000000E+00 -5.8853217594000E-03  2.0737392458000E-01
   230  2.2900000000000E+00 -7.5871397346000E-03  2.0271368755000E-01
   231  2.3000000000000E+00 -9.1051621649000E-03  1.9773097920000E-01
   232  2.3100000000000E+00 -1.0447590589000E-02  1.9245830518000E-01
   233  2.3200000000000E+00 -1.1622095529000E-02  1.8693129415000E-01
   234  2.3300000000000E+00 -1.2636722374000E-02  1.8118242040000E-01
   235  2.3400000000000E+00 -1.3499808335000E-02  1.7524258763000E-01
   236  2.3500000000000E+00 -1.4220295087000E-02  1.6914903443000E-01
   237  2.3600000000000E+00 -1.4806034832000E-02  1.6292860510000E-01
   238  2.3700000000000E+00 -1.5265152735000E-02  1.5660955115000E-01
   239  2.3800000000000E+00 -1.5606949792000E-02  1.5022754167000E-01
   240  2.3900000000000E+00 -1.5838454774000E-02  1.4380270483000E-01
   241  2.4000000000000E+00 -1.5967829093000E-02  1.3736185000000E-01
   242  2.4100000000000E+00 -1.6003909228000E-02  1.3093514192000E-01
   243  2.4200000000000E+00 -1.5953170432000E-02  1.2453902673000E-01
   244  2.4300000000000E+00 -1.5823540996000E-02  1.1819742404000E-01
   245  2.4400000000000E+00 -1.5623085814000E-02  1.1193457161000E-01
   246  2.4500000000000E+00 -1.5357666194000E-02  1.0576339678000E-01
   247  2.4600000000000E+00 -1.5034768884000E-02  9.9704287156000E-02
   248  2.4700000000000E+00 -1.4661540113000E-02  9.3775801332000E-02
   249  2.4800000000000E+00 -1.4243130957000E-02  8.7987240935000E-02
   250  2.4900000000000E+00 -1.3786404599000E-02  8.2355037421000E-02
   251  2.5000000000000E+00 -1.3297550433000E-02  7.6892605197000E-02
   252  2.5100000000000E+00 -1.2780917595000E-02  7.1605564846000E-02
   253  2.5200000000000E+00 -1.2242580502000E-02  6.6506101378000E-02
   254  2.5300000000000E+00 -1.1687814198000E-02  6.1603179920000E-02
   255  2.5400000000000E+00 -1.1120094177000E-02  5.6898800246000E-02
   256  2.5500000000000E+00 -1.0544570894000E-02  5.2400785409000E-02
   257  2.5600000000000E+00 -9.9657030090000E-03  4.8114399346000E-02
   258  2.5700000000000E+00 -9.3860492317000E-03  4.4038230554000E-02
   259  2.5800000000000E+00 -8.8097404628000E-03  4.0175828242000E-02
   260  2.5900000000000E+00 -8.2405429749000E-03  3.6529445021000E-02
   261  2.6000000000000E+00 -7.6800938335000E-03  3.3094646614000E-02
   262  2.6100000000000E+00 -7.1314572816000E-03  2.9871025540000E-02
   263  2.6200000000000E+00 -6.5978275585000E-03  2.6858352414000E-02
   264  2.6300000000000E+00 -6.0799608733000E-03  2.4049751938000E-02
   265  2.6400000000000E+00 -5.5798637008000E-03  2.1441423656000E-02
   266  2.6500000000000E+00 -5.1002476546000E-03  1.9030944449000E-02
   267  2.6600000000000E+00 -4.6410780907000E-03  1.6809765687000E-02
   268  2.6700000000000E+00 -4.2034255317000E-03  1.4771585684000E-02
   269  2.6800000000000E+00 -3.7894001582000E-03  1.2911555411000E-02
   270  2.6900000000000E+00 -3.3984701759000E-03  1.1220610394000E-02
   271  2.7000000000000E+00 -3.0309810413000E-03  9.6908887836000E-03
   272  2.7100000000000E+00 -2.6880192955000E-03  8.3149021659000E-03
   273  2.7200000000000E+00 -2.3691303094000E-03  7.0840320701000E-03
   274  2.7300000000000E+00 -2.0739128290000E-03  5.9895475290000E-03
   275  2.7400000000000E+00 -1.8025645821000E-03  5.0224364672000E-03
   276  2.7500000000000E+00 -1.5546930171000E-03  4.1739834871000E-03
   277  2.7600000000000E+00 -1.3293375076000E-03  3.4357528429000E-03
   278  2.7700000000000E+00 -1.1259957201000E-03  2.7985129134000E-03
   279  2.7800000000000E+00 -9.4423844846000E-04  2.2526078894000E-03
   280  2.7900000000000E+00 -7.8275582931000E-04  1.7910453369000E-03
   281  2.8000000000000E+00 -6.4059804598000E-04  1.4054798281000E-03
   282  2.8100000000000E+00 -5.1706329762000E-04  1.0851910504000E-03
   283  2.8200000000000E+00 -4.1078363371000E-04  8.2482110760000E-04
   284  2.8300000000000E+00 -3.2055667596000E-04  6.1733500400000E-04
   285  2.8400000000000E+00 -2.4526552583000E-04  4.5350420667000E-04
   286  2.8500000000000E+00 -1.8364862446000E-04  3.2704706637000E-04
   287  2.8600000000000E+00 -1.3433755575000E-04  2.3370629100000E-04
   288  2.8700000000000E+00 -9.6008468317000E-05  1.6703802696000E-04
   289  2.8800000000000E+00 -6.7323446043000E-05  1.1870477756000E-04
   290  2.8900000000000E+00 -4.6897859853000E-05  8.7873129318000E-05
   291  2.9000000000000E+00 -3.3337653272000E-05  7.0481191434000E-05
   292  2.9100000000000E+00 -2.5423369448000E-05  6.1016990935000E-05
   293  2.9200000000000E+00 -2.1513089567000E-05  5.6778186167000E-05
   294  2.9300000000000E+00 -1.9918440501000E-05  5.5189454316000E-05
   295  2.9400000000000E+00 -1.8017634199000E-05  5.0644379901000E-05
   296  2.9500000000000E+00 -1.2166811257000E-05  3.5112286445000E-05
   297  2.9600000000000E+00 -6.3977032735000E-06  1.8845313033000E-05
   298  2.9700000000000E+00 -1.3283418551000E-06  3.9774357267000E-06
   299  2.9800000000000E+00  9.3982502985000E-07 -2.6239696108000E-06
   300  2.9900000000000E+00  1.2736263024000E-06 -3.5559349953000E-06
   301  3.0000000000000E+00  7.7698165990000E-07 -2.1693147117000E-06
   302  3.0100000000000E+00  0.0000000000000E+00  0.0000000000000E+00
   303  3.0200000000000E+00  0.0000000000000E+00  0.0000000000000E+00
   304  3.0300000000000E+00  0.0000000000000E+00  0.0000000000000E+00
   305  3.0400000000000E+00  0.0000000000000E+00  0.0000000000000E+00
   306  3.0500000000000E+00  0.0000000000000E+00  0.0000000000000E+00
   307  3.0600000000000E+00  0.0000000000000E+00  0.0000000000000E+00
   308  3.0700000000000E+00  0.0000000000000E+00  0.0000000000000E+00
   309  3.0800000000000E+00  0.0000000000000E+00  0.0000000000000E+00
   310  3.0900000000000E+00  0.0000000000000E+00  0.0000000000000E+00
   311  3.1000000000000E+00  0.0000000000000E+00  0.0000000000000E+00
   312  3.1100000000000E+00  0.0000000000000E+00  0.0000000000000E+00
   313  3.1200000000000E+00  0.0000000000000E+00  0.0000000000000E+00
   314  3.1300000000000E+00  0.0000000000000E+00  0.0000000000000E+00
   315  3.1400000000000E+00  0.0000000000000E+00  0.0000000000000E+00
   316  3.1500000000000E+00  0.0000000000000E+00  0.0000000000000E+00
   317  3.1600000000000E+00  0.0000000000000E+00  0.0000000000000E+00
   318  3.1700000000000E+00  0.0000000000000E+00  0.0000000000000E+00
   319  3.1800000000000E+00  0.0000000000000E+00  0.0000000000000E+00
   320  3.1900000000000E+00  0.0000000000000E+00  0.0000000000000E+00
   321  3.2000000000000E+00  0.0000000000000E+00  0.0000000000000E+00
   322  3.2100000000000E+00  0.0000000000000E+00  0.0000000000000E+00
   323  3.2200000000000E+00  0.0000000000000E+00  0.0000000000000E+00
   324  3.2300000000000E+00  0.0000000000000E+00  0.0000000000000E+00
   325  3.2400000000000E+00  0.0000000000000E+00  0.0000000000000E+00
   326  3.2500000000000E+00  0.0000000000000E+00  0.0000000000000E+00
   327  3.2600000000000E+00  0.0000000000000E+00  0.0000000000000E+00
   328  3.2700000000000E+00  0.0000000000000E+00  0.0000000000000E+00
   329  3.2800000000000E+00  0.0000000000000E+00  0.0000000000000E+00
   330  3.2900000000000E+00  0.0000000000000E+00  0.0000000000000E+00
   331  3.3000000000000E+00  0.0000000000000E+00  0.0000000000000E+00
   332  3.3100000000000E+00  0.0000000000000E+00  0.0000000000000E+00
   333  3.3200000000000E+00  0.0000000000000E+00  0.0000000000000E+00
   334  3.3300000000000E+00  0.0000000000000E+00  0.0000000000000E+00
   335  3.3400000000000E+00  0.0000000000000E+00  0.0000000000000E+00
   336  3.3500000000000E+00  0.0000000000000E+00  0.0000000000000E+00
   337  3.3600000000000E+00  0.0000000000000E+00  0.0000000000000E+00
   338  3.3700000000000E+00  0.0000000000000E+00  0.0000000000000E+00
   339  3.3800000000000E+00  0.0000000000000E+00  0.0000000000000E+00
   340  3.3900000000000E+00  0.0000000000000E+00  0.0000000000000E+00
   341  3.4000000000000E+00  0.0000000000000E+00  0.0000000000000E+00
   342  3.4100000000000E+00  0.0000000000000E+00  0.0000000000000E+00
   343  3.4200000000000E+00  0.0000000000000E+00  0.0000000000000E+00
   344  3.4300000000000E+00  0.0000000000000E+00  0.0000000000000E+00
   345  3.4400000000000E+00  0.0000000000000E+00  0.0000000000000E+00
   346  3.4500000000000E+00  0.0000000000000E+00  0.0000000000000E+00
   347  3.4600000000000E+00  0.0000000000000E+00  0.0000000000000E+00
   348  3.4700000000000E+00  0.0000000000000E+00  0.0000000000000E+00
   349  3.4800000000000E+00  0.0000000000000E+00  0.0000000000000E+00
   350  3.4900000000000E+00  0.0000000000000E+00  0.0000000000000E+00
   351  3.5000000000000E+00  0.0000000000000E+00  0.0000000000000E+00
   352  3.5100000000000E+00  0.0000000000000E+00  0.0000000000000E+00
   353  3.5200000000000E+00  0.0000000000000E+00  0.0000000000000E+00
   354  3.5300000000000E+00  0.0000000000000E+00  0.0000000000000E+00
   355  3.5400000000000E+00  0.0000000000000E+00  0.0000000000000E+00
   356  3.5500000000000E+00  0.0000000000000E+00  0.0000000000000E+00
   357  3.5600000000000E+00  0.0000000000000E+00  0.0000000000000E+00
   358  3.5700000000000E+00  0.0000000000000E+00  0.0000000000000E+00
   359  3.5800000000000E+00  0.0000000000000E+00  0.0000000000000E+00
   360  3.5900000000000E+00  0.0000000000000E+00  0.0000000000000E+00
   361  3.6000000000000E+00  0.0000000000000E+00  0.0000000000000E+00
   362  3.6100000000000E+00  0.0000000000000E+00  0.0000000000000E+00
   363  3.6200000000000E+00  0.0000000000000E+00  0.0000000000000E+00
   364  3.6300000000000E+00  0.0000000000000E+00  0.0000000000000E+00
   365  3.6400000000000E+00  0.0000000000000E+00  0.0000000000000E+00
   366  3.6500000000000E+00  0.0000000000000E+00  0.0000000000000E+00
   367  3.6600000000000E+00  0.0000000000000E+00  0.0000000000000E+00
   368  3.6700000000000E+00  0.0000000000000E+00  0.0000000000000E+00
   369  3.6800000000000E+00  0.0000000000000E+00  0.0000000000000E+00
   370  3.6900000000000E+00  0.0000000000000E+00  0.0000000000000E+00
   371  3.7000000000000E+00  0.0000000000000E+00  0.0000000000000E+00
   372  3.7100000000000E+00  0.0000000000000E+00  0.0000000000000E+00
   373  3.7200000000000E+00  0.0000000000000E+00  0.0000000000000E+00
   374  3.7300000000000E+00  0.0000000000000E+00  0.0000000000000E+00
   375  3.7400000000000E+00  0.0000000000000E+00  0.0000000000000E+00
   376  3.7500000000000E+00  0.0000000000000E+00  0.0000000000000E+00
   377  3.7600000000000E+00  0.0000000000000E+00  0.0000000000000E+00
   378  3.7700000000000E+00  0.0000000000000E+00  0.0000000000000E+00
   379  3.7800000000000E+00  0.0000000000000E+00  0.0000000000000E+00
   380  3.7900000000000E+00  0.0000000000000E+00  0.0000000000000E+00
   381  3.8000000000000E+00  0.0000000000000E+00  0.0000000000000E+00
   382  3.8100000000000E+00  0.0000000000000E+00  0.0000000000000E+00
   383  3.8200000000000E+00  0.0000000000000E+00  0.0000000000000E+00
   384  3.8300000000000E+00  0.0000000000000E+00  0.0000000000000E+00
   385  3.8400000000000E+00  0.0000000000000E+00  0.0000000000000E+00
   386  3.8500000000000E+00  0.0000000000000E+00  0.0000000000000E+00
   387  3.8600000000000E+00  0.0000000000000E+00  0.0000000000000E+00
   388  3.8700000000000E+00  0.0000000000000E+00  0.0000000000000E+00
   389  3.8800000000000E+00  0.0000000000000E+00  0.0000000000000E+00
   390  3.8900000000000E+00  0.0000000000000E+00  0.0000000000000E+00
   391  3.9000000000000E+00  0.0000000000000E+00  0.0000000000000E+00
   392  3.9100000000000E+00  0.0000000000000E+00  0.0000000000000E+00
   393  3.9200000000000E+00  0.0000000000000E+00  0.0000000000000E+00
   394  3.9300000000000E+00  0.0000000000000E+00  0.0000000000000E+00
   395  3.9400000000000E+00  0.0000000000000E+00  0.0000000000000E+00
   396  3.9500000000000E+00  0.0000000000000E+00  0.0000000000000E+00
   397  3.9600000000000E+00  0.0000000000000E+00  0.0000000000000E+00
   398  3.9700000000000E+00  0.0000000000000E+00  0.0000000000000E+00
   399  3.9800000000000E+00  0.0000000000000E+00  0.0000000000000E+00
   400  3.9900000000000E+00  0.0000000000000E+00  0.0000000000000E+00
   401  4.0000000000000E+00  0.0000000000000E+00  0.0000000000000E+00
   402  4.0100000000000E+00  0.0000000000000E+00  0.0000000000000E+00
   403  4.0200000000000E+00  0.0000000000000E+00  0.0000000000000E+00
   404  4.0300000000000E+00  0.0000000000000E+00  0.0000000000000E+00
   405  4.0400000000000E+00  0.0000000000000E+00  0.0000000000000E+00
   406  4.0500000000000E+00  0.0000000000000E+00  0.0000000000000E+00
   407  4.0600000000000E+00  0.0000000000000E+00  0.0000000000000E+00
   408  4.0700000000000E+00  0.0000000000000E+00  0.0000000000000E+00
   409  4.0800000000000E+00  0.0000000000000E+00  0.0000000000000E+00
   410  4.0900000000000E+00  0.0000000000000E+00  0.0000000000000E+00
   411  4.1000000000000E+00  0.0000000000000E+00  0.0000000000000E+00
   412  4.1100000000000E+00  0.0000000000000E+00  0.0000000000000E+00
   413  4.1200000000000E+00  0.0000000000000E+00  0.0000000000000E+00
   414  4.1300000000000E+00  0.0000000000000E+00  0.0000000000000E+00
   415  4.1400000000000E+00  0.0000000000000E+00  0.0000000000000E+00
   416  4.1500000000000E+00  0.0000000000000E+00  0.0000000000000E+00
   417  4.1600000000000E+00  0.0000000000000E+00  0.0000000000000E+00
   418  4.1700000000000E+00  0.0000000000000E+00  0.0000000000000E+00
   419  4.1800000000000E+00  0.0000000000000E+00  0.0000000000000E+00
   420  4.1900000000000E+00  0.0000000000000E+00  0.0000000000000E+00
   421  4.2000000000000E+00  0.0000000000000E+00  0.0000000000000E+00
   422  4.2100000000000E+00  0.0000000000000E+00  0.0000000000000E+00
   423  4.2200000000000E+00  0.0000000000000E+00  0.0000000000000E+00