La   ONCVPSP-2.1.1   r_core=    2.88630 2.88630 2.92093 2.47169
    57.0000   11.0000   150105   zatom,zion,pspd
    8   11   3   4   600   0   pspcod,pspxc,lmax,lloc,mmax,r2well
    5.99000000   0.00000000   0.00000000   rchrg fchrg qchrg
    2   2   2   2   0   nproj
    1   1   extension_switch
       0                         3.9789928699000E+00  5.9943265145000E-01
     1  0.0000000000000E+00  0.0000000000000E+00  0.0000000000000E+00
     2  1.0000000000000E-02 -2.9513095518000E-02  9.5846005299000E-04
     3  2.0000000000000E-02 -5.9013685485000E-02  1.9258979115000E-03
     4  3.0000000000000E-02 -8.8489244904000E-02  2.9112161454000E-03
     5  4.0000000000000E-02 -1.1792721001000E-01  3.9231671591000E-03
     6  5.0000000000000E-02 -1.4731495915000E-01  4.9702788710000E-03
     7  6.0000000000000E-02 -1.7663979404000E-01  6.0607813062000E-03
     8  7.0000000000000E-02 -2.0588892146000E-01  7.2025344000000E-03
     9  8.0000000000000E-02 -2.3504943549000E-01  8.4029573095000E-03
    10  9.0000000000000E-02 -2.6410830042000E-01  9.6689595211000E-03
    11  1.0000000000000E-01 -2.9305233450000E-01  1.1006874041000E-02
    12  1.1000000000000E-01 -3.2186819446000E-01  1.2422392942000E-02
    13  1.2000000000000E-01 -3.5054236112000E-01  1.3920505542000E-02
    14  1.3000000000000E-01 -3.7906112600000E-01  1.5505439462000E-02
    15  1.4000000000000E-01 -4.0741057909000E-01  1.7180604842000E-02
    16  1.5000000000000E-01 -4.3557659797000E-01  1.8948541901000E-02
    17  1.6000000000000E-01 -4.6354483819000E-01  2.0810872151000E-02
    18  1.7000000000000E-01 -4.9130072508000E-01  2.2768253383000E-02
    19  1.8000000000000E-01 -5.1882944705000E-01  2.4820338726000E-02
    20  1.9000000000000E-01 -5.4611595054000E-01  2.6965739883000E-02
    21  2.0000000000000E-01 -5.7314493646000E-01  2.9201994808000E-02
    22  2.1000000000000E-01 -5.9990085842000E-01  3.1525539855000E-02
    23  2.2000000000000E-01 -6.2636792265000E-01  3.3931686701000E-02
    24  2.3000000000000E-01 -6.5253008975000E-01  3.6414604063000E-02
    25  2.4000000000000E-01 -6.7837107819000E-01  3.8967304354000E-02
    26  2.5000000000000E-01 -7.0387436971000E-01  4.1581635293000E-02
    27  2.6000000000000E-01 -7.2902321661000E-01  4.4248276822000E-02
    28  2.7000000000000E-01 -7.5380065090000E-01  4.6956742925000E-02
    29  2.8000000000000E-01 -7.7818949539000E-01  4.9695388857000E-02
    30  2.9000000000000E-01 -8.0217237671000E-01  5.2451423514000E-02
    31  3.0000000000000E-01 -8.2573174015000E-01  5.5210927053000E-02
    32  3.1000000000000E-01 -8.4884986654000E-01  5.7958873724000E-02
    33  3.2000000000000E-01 -8.7150889084000E-01  6.0679159826000E-02
    34  3.3000000000000E-01 -8.9369082288000E-01  6.3354637043000E-02
    35  3.4000000000000E-01 -9.1537756949000E-01  6.5967150382000E-02
    36  3.5000000000000E-01 -9.3655095890000E-01  6.8497581663000E-02
    37  3.6000000000000E-01 -9.5719276637000E-01  7.0925897122000E-02
    38  3.7000000000000E-01 -9.7728474225000E-01  7.3231200959000E-02
    39  3.8000000000000E-01 -9.9680864072000E-01  7.5391791887000E-02
    40  3.9000000000000E-01 -1.0157462506000E+00  7.7385224968000E-02
    41  4.0000000000000E-01 -1.0340794282000E+00  7.9188378776000E-02
    42  4.1000000000000E-01 -1.0517901306000E+00  8.0777524410000E-02
    43  4.2000000000000E-01 -1.0688604504000E+00  8.2128399838000E-02
    44  4.3000000000000E-01 -1.0852726527000E+00  8.3216287543000E-02
    45  4.4000000000000E-01 -1.1010092117000E+00  8.4016095552000E-02
    46  4.5000000000000E-01 -1.1160528497000E+00  8.4502441609000E-02
    47  4.6000000000000E-01 -1.1303865763000E+00  8.4649740183000E-02
    48  4.7000000000000E-01 -1.1439937278000E+00  8.4432290360000E-02
    49  4.8000000000000E-01 -1.1568580097000E+00  8.3824371457000E-02
    50  4.9000000000000E-01 -1.1689635373000E+00  8.2800335222000E-02
    51  5.0000000000000E-01 -1.1802948774000E+00  8.1334700749000E-02
    52  5.1000000000000E-01 -1.1908370878000E+00  7.9402245701000E-02
    53  5.2000000000000E-01 -1.2005757673000E+00  7.6978120174000E-02
    54  5.3000000000000E-01 -1.2094970909000E+00  7.4037930908000E-02
    55  5.4000000000000E-01 -1.2175878516000E+00  7.0557838074000E-02
    56  5.5000000000000E-01 -1.2248355131000E+00  6.6514677712000E-02
    57  5.6000000000000E-01 -1.2312282332000E+00  6.1886019841000E-02
    58  5.7000000000000E-01 -1.2367549287000E+00  5.6650319745000E-02
    59  5.8000000000000E-01 -1.2414052887000E+00  5.0786952168000E-02
    60  5.9000000000000E-01 -1.2451698444000E+00  4.4276376079000E-02
    61  6.0000000000000E-01 -1.2480399776000E+00  3.7100158752000E-02
    62  6.1000000000000E-01 -1.2500079852000E+00  2.9241128469000E-02
    63  6.2000000000000E-01 -1.2510670999000E+00  2.0683427000000E-02
    64  6.3000000000000E-01 -1.2512115231000E+00  1.1412591025000E-02
    65  6.4000000000000E-01 -1.2504364792000E+00  1.4156827940000E-03
    66  6.5000000000000E-01 -1.2487382254000E+00 -9.3186816682000E-03
    67  6.6000000000000E-01 -1.2461140843000E+00 -2.0800252062000E-02
    68  6.7000000000000E-01 -1.2425624948000E+00 -3.3037018714000E-02
    69  6.8000000000000E-01 -1.2380830153000E+00 -4.6035200315000E-02
    70  6.9000000000000E-01 -1.2326763540000E+00 -5.9799166547000E-02
    71  7.0000000000000E-01 -1.2263443896000E+00 -7.4331384831000E-02
    72  7.1000000000000E-01 -1.2190902075000E+00 -8.9632327441000E-02
    73  7.2000000000000E-01 -1.2109180986000E+00 -1.0570046947000E-01
    74  7.3000000000000E-01 -1.2018335806000E+00 -1.2253223156000E-01
    75  7.4000000000000E-01 -1.1918434109000E+00 -1.4012194312000E-01
    76  7.5000000000000E-01 -1.1809555958000E+00 -1.5846181407000E-01
    77  7.6000000000000E-01 -1.1691793968000E+00 -1.7754191235000E-01
    78  7.7000000000000E-01 -1.1565253436000E+00 -1.9735012466000E-01
    79  7.8000000000000E-01 -1.1430052248000E+00 -2.1787217299000E-01
    80  7.9000000000000E-01 -1.1286320902000E+00 -2.3909159990000E-01
    81  8.0000000000000E-01 -1.1134202467000E+00 -2.6098977050000E-01
    82  8.1000000000000E-01 -1.0973852509000E+00 -2.8354588133000E-01
    83  8.2000000000000E-01 -1.0805438988000E+00 -3.0673697603000E-01
    84  8.3000000000000E-01 -1.0629142125000E+00 -3.3053796795000E-01
    85  8.4000000000000E-01 -1.0445154238000E+00 -3.5492166962000E-01
    86  8.5000000000000E-01 -1.0253679547000E+00 -3.7985882912000E-01
    87  8.6000000000000E-01 -1.0054933951000E+00 -4.0531817319000E-01
    88  8.7000000000000E-01 -9.8491447700000E-01 -4.3126645726000E-01
    89  8.8000000000000E-01 -9.6365504670000E-01 -4.5766852200000E-01
    90  8.9000000000000E-01 -9.4174003297000E-01 -4.8448735655000E-01
    91  9.0000000000000E-01 -9.1919541305000E-01 -5.1168416817000E-01
    92  9.1000000000000E-01 -8.9604817558000E-01 -5.3921845811000E-01
    93  9.2000000000000E-01 -8.7232628088000E-01 -5.6704810365000E-01
    94  9.3000000000000E-01 -8.4805861850000E-01 -5.9512944594000E-01
    95  9.4000000000000E-01 -8.2327496503000E-01 -6.2341737897000E-01
    96  9.5000000000000E-01 -7.9800593457000E-01 -6.5186545071000E-01
    97  9.6000000000000E-01 -7.7228292265000E-01 -6.8042597903000E-01
    98  9.7000000000000E-01 -7.4613806161000E-01 -7.0905014849000E-01
    99  9.8000000000000E-01 -7.1960416376000E-01 -7.3768812778000E-01
   100  9.9000000000000E-01 -6.9271466509000E-01 -7.6628918756000E-01
   101  1.0000000000000E+00 -6.6550356731000E-01 -7.9480182177000E-01
   102  1.0100000000000E+00 -6.3800538311000E-01 -8.2317386272000E-01
   103  1.0200000000000E+00 -6.1025509212000E-01 -8.5135257471000E-01
   104  1.0300000000000E+00 -5.8228800357000E-01 -8.7928493129000E-01
   105  1.0400000000000E+00 -5.5413976361000E-01 -9.0691760986000E-01
   106  1.0500000000000E+00 -5.2584626923000E-01 -9.3419716735000E-01
   107  1.0600000000000E+00 -4.9744360335000E-01 -9.6107017444000E-01
   108  1.0700000000000E+00 -4.6896803301000E-01 -9.8748322319000E-01
   109  1.0800000000000E+00 -4.4045576211000E-01 -1.0133834255000E+00
   110  1.0900000000000E+00 -4.1194300372000E-01 -1.0387182725000E+00
   111  1.1000000000000E+00 -3.8346589280000E-01 -1.0634358113000E+00
   112  1.1100000000000E+00 -3.5506046684000E-01 -1.0874846847000E+00
   113  1.1200000000000E+00 -3.2676250501000E-01 -1.1108144553000E+00
   114  1.1300000000000E+00 -2.9860739478000E-01 -1.1333758734000E+00
   115  1.1400000000000E+00 -2.7063022271000E-01 -1.1551206923000E+00
   116  1.1500000000000E+00 -2.4286574832000E-01 -1.1760017208000E+00
   117  1.1600000000000E+00 -2.1534814176000E-01 -1.1959733455000E+00
   118  1.1700000000000E+00 -1.8811090851000E-01 -1.2149916762000E+00
   119  1.1800000000000E+00 -1.6118701513000E-01 -1.2330142894000E+00
   120  1.1900000000000E+00 -1.3460897153000E-01 -1.2500000639000E+00
   121  1.2000000000000E+00 -1.0840810178000E-01 -1.2659106199000E+00
   122  1.2100000000000E+00 -8.2615083791000E-02 -1.2807092372000E+00
   123  1.2200000000000E+00 -5.7259943212000E-02 -1.2943608665000E+00
   124  1.2300000000000E+00 -3.2371538309000E-02 -1.3068331338000E+00
   125  1.2400000000000E+00 -7.9776539534000E-03 -1.3180961353000E+00
   126  1.2500000000000E+00  1.5894648458000E-02 -1.3281217505000E+00
   127  1.2600000000000E+00  3.9219524477000E-02 -1.3368845943000E+00
   128  1.2700000000000E+00  6.1972519063000E-02 -1.3443623181000E+00
   129  1.2800000000000E+00  8.4129930220000E-02 -1.3505343833000E+00
   130  1.2900000000000E+00  1.0566944941000E-01 -1.3553832767000E+00
   131  1.3000000000000E+00  1.2657030069000E-01 -1.3588947308000E+00
   132  1.3100000000000E+00  1.4681244926000E-01 -1.3610562361000E+00
   133  1.3200000000000E+00  1.6637760058000E-01 -1.3618588897000E+00
   134  1.3300000000000E+00  1.8524890566000E-01 -1.3612967940000E+00
   135  1.3400000000000E+00  2.0341022588000E-01 -1.3593657331000E+00
   136  1.3500000000000E+00  2.2084768799000E-01 -1.3560659421000E+00
   137  1.3600000000000E+00  2.3754839805000E-01 -1.3513997512000E+00
   138  1.3700000000000E+00  2.5350061821000E-01 -1.3453719355000E+00
   139  1.3800000000000E+00  2.6869485063000E-01 -1.3379915109000E+00
   140  1.3900000000000E+00  2.8312220087000E-01 -1.3292689186000E+00
   141  1.4000000000000E+00  2.9677580987000E-01 -1.3192184330000E+00
   142  1.4100000000000E+00  3.0965023682000E-01 -1.3078570309000E+00
   143  1.4200000000000E+00  3.2174093548000E-01 -1.2952036070000E+00
   144  1.4300000000000E+00  3.3304579288000E-01 -1.2812812829000E+00
   145  1.4400000000000E+00  3.4356316864000E-01 -1.2661143689000E+00
   146  1.4500000000000E+00  3.5329356837000E-01 -1.2497308623000E+00
   147  1.4600000000000E+00  3.6223863199000E-01 -1.2321608333000E+00
   148  1.4700000000000E+00  3.7040122575000E-01 -1.2134366481000E+00
   149  1.4800000000000E+00  3.7778619395000E-01 -1.1935937433000E+00
   150  1.4900000000000E+00  3.8439879892000E-01 -1.1726687727000E+00
   151  1.5000000000000E+00  3.9024672350000E-01 -1.1507017825000E+00
   152  1.5100000000000E+00  3.9533802221000E-01 -1.1277339206000E+00
   153  1.5200000000000E+00  3.9968263605000E-01 -1.1038089456000E+00
   154  1.5300000000000E+00  4.0329138654000E-01 -1.0789721044000E+00
   155  1.5400000000000E+00  4.0617639518000E-01 -1.0532705910000E+00
   156  1.5500000000000E+00  4.0835100982000E-01 -1.0267530748000E+00
   157  1.5600000000000E+00  4.0982945669000E-01 -9.9946988849000E-01
   158  1.5700000000000E+00  4.1062733692000E-01 -9.7147241123000E-01
   159  1.5800000000000E+00  4.1076089144000E-01 -9.4281377242000E-01
   160  1.5900000000000E+00  4.1024768308000E-01 -9.1354736558000E-01
   161  1.6000000000000E+00  4.0910586399000E-01 -8.8372865270000E-01
   162  1.6100000000000E+00  4.0735466455000E-01 -8.5341248753000E-01
   163  1.6200000000000E+00  4.0501398636000E-01 -8.2265593829000E-01
   164  1.6300000000000E+00  4.0210448404000E-01 -7.9151491847000E-01
   165  1.6400000000000E+00  3.9864756767000E-01 -7.6004743123000E-01
   166  1.6500000000000E+00  3.9466511245000E-01 -7.2830989391000E-01
   167  1.6600000000000E+00  3.9017978113000E-01 -6.9636064969000E-01
   168  1.6700000000000E+00  3.8521444296000E-01 -6.6425601732000E-01
   169  1.6800000000000E+00  3.7979277061000E-01 -6.3205413949000E-01
   170  1.6900000000000E+00  3.7393837609000E-01 -5.9981058871000E-01
   171  1.7000000000000E+00  3.6767571915000E-01 -5.6758283269000E-01
   172  1.7100000000000E+00  3.6102887821000E-01 -5.3542500965000E-01
   173  1.7200000000000E+00  3.5402290210000E-01 -5.0339351090000E-01
   174  1.7300000000000E+00  3.4668203561000E-01 -4.7154032129000E-01
   175  1.7400000000000E+00  3.3903174673000E-01 -4.3992042901000E-01
   176  1.7500000000000E+00  3.3109612650000E-01 -4.0858293034000E-01
   177  1.7600000000000E+00  3.2290092031000E-01 -3.7758115209000E-01
   178  1.7700000000000E+00  3.1446973224000E-01 -3.4696057413000E-01
   179  1.7800000000000E+00  3.0582846729000E-01 -3.1677265498000E-01
   180  1.7900000000000E+00  2.9700006233000E-01 -2.8705900994000E-01
   181  1.8000000000000E+00  2.8801001542000E-01 -2.5786772997000E-01
   182  1.8100000000000E+00  2.7888083014000E-01 -2.2923748654000E-01
   183  1.8200000000000E+00  2.6963706925000E-01 -2.0121174286000E-01
   184  1.8300000000000E+00  2.6030086177000E-01 -1.7382651639000E-01
   185  1.8400000000000E+00  2.5089540797000E-01 -1.4711977262000E-01
   186  1.8500000000000E+00  2.4144251211000E-01 -1.2112508201000E-01
   187  1.8600000000000E+00  2.3196360248000E-01 -9.5874163232000E-02
   188  1.8700000000000E+00  2.2248022634000E-01 -7.1398345900000E-02
   189  1.8800000000000E+00  2.1301166474000E-01 -4.7722509595000E-02
   190  1.8900000000000E+00  2.0357925591000E-01 -2.4875854456000E-02
   191  1.9000000000000E+00  1.9420008013000E-01 -2.8766446410000E-03
   192  1.9100000000000E+00  1.8489452221000E-01  1.8249802023000E-02
   193  1.9200000000000E+00  1.7567836788000E-01  3.8489433030000E-02
   194  1.9300000000000E+00  1.6656963502000E-01  5.7823869165000E-02
   195  1.9400000000000E+00  1.5758387681000E-01  7.6240786499000E-02
   196  1.9500000000000E+00  1.4873607013000E-01  9.3729852285000E-02
   197  1.9600000000000E+00  1.4004171455000E-01  1.1028018634000E-01
   198  1.9700000000000E+00  1.3151260626000E-01  1.2588930143000E-01
   199  1.9800000000000E+00  1.2316390010000E-01  1.4054850266000E-01
   200  1.9900000000000E+00  1.1500520521000E-01  1.5426071474000E-01
   201  2.0000000000000E+00  1.0704894181000E-01  1.6702404230000E-01
   202  2.0100000000000E+00  9.9304821839000E-02  1.7884222596000E-01
   203  2.0200000000000E+00  9.1781570444000E-02  1.8972149926000E-01
   204  2.0300000000000E+00  8.4489157073000E-02  1.9966640596000E-01
   205  2.0400000000000E+00  7.7433092049000E-02  2.0868980659000E-01
   206  2.0500000000000E+00  7.0621986437000E-02  2.1679998760000E-01
   207  2.0600000000000E+00  6.4060313332000E-02  2.2401238086000E-01
   208  2.0700000000000E+00  5.7753250080000E-02  2.3034198641000E-01
   209  2.0800000000000E+00  5.1705780238000E-02  2.3580457540000E-01
   210  2.0900000000000E+00  4.5919562680000E-02  2.4042121756000E-01
   211  2.1000000000000E+00  4.0398977800000E-02  2.4420997529000E-01
   212  2.1100000000000E+00  3.5144146133000E-02  2.4719472360000E-01
   213  2.1200000000000E+00  3.0156275238000E-02  2.4939872054000E-01
   214  2.1300000000000E+00  2.5436170022000E-02  2.5084615621000E-01
   215  2.1400000000000E+00  2.0981723038000E-02  2.5156473526000E-01
   216  2.1500000000000E+00  1.6793067178000E-02  2.5158084293000E-01
   217  2.1600000000000E+00  1.2866929309000E-02  2.5092398211000E-01
   218  2.1700000000000E+00  9.2004383925000E-03  2.4962409647000E-01
   219  2.1800000000000E+00  5.7910346155000E-03  2.4771155875000E-01
   220  2.1900000000000E+00  2.6331454789000E-03  2.4521862909000E-01
   221  2.2000000000000E+00 -2.7710045230000E-04  2.4217786455000E-01
   222  2.2100000000000E+00 -2.9455412468000E-03  2.3862255688000E-01
   223  2.2200000000000E+00 -5.3788456206000E-03  2.3458672928000E-01
   224  2.2300000000000E+00 -7.5823671631000E-03  2.3010563254000E-01
   225  2.2400000000000E+00 -9.5645993459000E-03  2.2521376651000E-01
   226  2.2500000000000E+00 -1.1332979250000E-02  2.1994724186000E-01
   227  2.2600000000000E+00 -1.2895386189000E-02  2.1434253833000E-01
   228  2.2700000000000E+00 -1.4261300611000E-02  2.0843490875000E-01
   229  2.2800000000000E+00 -1.5439767902000E-02  2.0226331378000E-01
   230  2.2900000000000E+00 -1.6440184136000E-02  1.9586249340000E-01
   231  2.3000000000000E+00 -1.7272201713000E-02  1.8926623288000E-01
   232  2.3100000000000E+00 -1.7946284065000E-02  1.8251525546000E-01
   233  2.3200000000000E+00 -1.8471344602000E-02  1.7563726280000E-01
   234  2.3300000000000E+00 -1.8857068013000E-02  1.6866468757000E-01
   235  2.3400000000000E+00 -1.9113856740000E-02  1.6163378395000E-01
   236  2.3500000000000E+00 -1.9249959434000E-02  1.5456719805000E-01
   237  2.3600000000000E+00 -1.9275146539000E-02  1.4749571230000E-01
   238  2.3700000000000E+00 -1.9198932084000E-02  1.4044829931000E-01
   239  2.3800000000000E+00 -1.9029083927000E-02  1.3344439827000E-01
   240  2.3900000000000E+00 -1.8775175296000E-02  1.2651187436000E-01
   241  2.4000000000000E+00 -1.8445501085000E-02  1.1967230725000E-01
   242  2.4100000000000E+00 -1.8047246892000E-02  1.1294177125000E-01
   243  2.4200000000000E+00 -1.7589567637000E-02  1.0634457623000E-01
   244  2.4300000000000E+00 -1.7079367239000E-02  9.9895286782000E-02
   245  2.4400000000000E+00 -1.6523139858000E-02  9.3606429523000E-02
   246  2.4500000000000E+00 -1.5929405111000E-02  8.7498221404000E-02
   247  2.4600000000000E+00 -1.5303643720000E-02  8.1578955384000E-02
   248  2.4700000000000E+00 -1.4651548162000E-02  7.5857457632000E-02
   249  2.4800000000000E+00 -1.3980806268000E-02  7.0349462394000E-02
   250  2.4900000000000E+00 -1.3295555227000E-02  6.5057974591000E-02
   251  2.5000000000000E+00 -1.2600585740000E-02  5.9988051696000E-02
   252  2.5100000000000E+00 -1.1902590323000E-02  5.5150733755000E-02
   253  2.5200000000000E+00 -1.1204523328000E-02  5.0544841578000E-02
   254  2.5300000000000E+00 -1.0510196155000E-02  4.6171727440000E-02
   255  2.5400000000000E+00 -9.8251840348000E-03  4.2037722659000E-02
   256  2.5500000000000E+00 -9.1514686653000E-03  3.8138574017000E-02
   257  2.5600000000000E+00 -8.4918386818000E-03  3.4472160857000E-02
   258  2.5700000000000E+00 -7.8506776423000E-03  3.1040301376000E-02
   259  2.5800000000000E+00 -7.2292226604000E-03  2.7836674284000E-02
   260  2.5900000000000E+00 -6.6292396228000E-03  2.4856111930000E-02
   261  2.6000000000000E+00 -6.0538984855000E-03  2.2096337374000E-02
   262  2.6100000000000E+00 -5.5039064731000E-03  1.9549758029000E-02
   263  2.6200000000000E+00 -4.9800566867000E-03  1.7208789326000E-02
   264  2.6300000000000E+00 -4.4843403609000E-03  1.5067710338000E-02
   265  2.6400000000000E+00 -4.0171068401000E-03  1.3118154178000E-02
   266  2.6500000000000E+00 -3.5782788119000E-03  1.1350944957000E-02
   267  2.6600000000000E+00 -3.1687634369000E-03  9.7578041800000E-03
   268  2.6700000000000E+00 -2.7886578700000E-03  8.3297307748000E-03
   269  2.6800000000000E+00 -2.4371660603000E-03  7.0569436861000E-03
   270  2.6900000000000E+00 -2.1142645029000E-03  5.9297080613000E-03
   271  2.7000000000000E+00 -1.8198254423000E-03  4.9381755182000E-03
   272  2.7100000000000E+00 -1.5525244512000E-03  4.0730363976000E-03
   273  2.7200000000000E+00 -1.3116108449000E-03  3.3243550247000E-03
   274  2.7300000000000E+00 -1.0966869121000E-03  2.6809623667000E-03
   275  2.7400000000000E+00 -9.0610914262000E-04  2.1350748722000E-03
   276  2.7500000000000E+00 -7.3869488861000E-04  1.6773639419000E-03
   277  2.7600000000000E+00 -5.9350352447000E-04  1.2962666793000E-03
   278  2.7700000000000E+00 -4.6895631343000E-04  9.8494491171000E-04
   279  2.7800000000000E+00 -3.6355161402000E-04  7.3563021129000E-04
   280  2.7900000000000E+00 -2.7589618837000E-04  5.3815073975000E-04
   281  2.8000000000000E+00 -2.0445931538000E-04  3.8505941190000E-04
   282  2.8100000000000E+00 -1.4758510066000E-04  2.7132395286000E-04
   283  2.8200000000000E+00 -1.0365661172000E-04  1.8942774836000E-04
   284  2.8300000000000E+00 -7.1027818437000E-05  1.3034469548000E-04
   285  2.8400000000000E+00 -4.8048297549000E-05  9.2435319813000E-05
   286  2.8500000000000E+00 -3.3033730954000E-05  7.0823161831000E-05
   287  2.8600000000000E+00 -2.4382681445000E-05  5.8657236105000E-05
   288  2.8700000000000E+00 -2.0224899877000E-05  5.3309433412000E-05
   289  2.8800000000000E+00 -1.8695667617000E-05  5.1540158660000E-05
   290  2.8900000000000E+00 -1.6157888109000E-05  4.5307078214000E-05
   291  2.9000000000000E+00 -1.0413034196000E-05  3.0003090732000E-05
   292  2.9100000000000E+00 -4.9575051938000E-06  1.4593741672000E-05
   293  2.9200000000000E+00 -3.6375412915000E-07  1.0895551159000E-06
   294  2.9300000000000E+00  1.0566189903000E-06 -2.9274045197000E-06
   295  2.9400000000000E+00  1.1482614278000E-06 -3.1813035014000E-06
   296  2.9500000000000E+00  5.2973115028000E-07 -1.4676410114000E-06
   297  2.9600000000000E+00  0.0000000000000E+00  0.0000000000000E+00
   298  2.9700000000000E+00  0.0000000000000E+00  0.0000000000000E+00
   299  2.9800000000000E+00  0.0000000000000E+00  0.0000000000000E+00
   300  2.9900000000000E+00  0.0000000000000E+00  0.0000000000000E+00
   301  3.0000000000000E+00  0.0000000000000E+00  0.0000000000000E+00
   302  3.0100000000000E+00  0.0000000000000E+00  0.0000000000000E+00
   303  3.0200000000000E+00  0.0000000000000E+00  0.0000000000000E+00
   304  3.0300000000000E+00  0.0000000000000E+00  0.0000000000000E+00
   305  3.0400000000000E+00  0.0000000000000E+00  0.0000000000000E+00
   306  3.0500000000000E+00  0.0000000000000E+00  0.0000000000000E+00
   307  3.0600000000000E+00  0.0000000000000E+00  0.0000000000000E+00
   308  3.0700000000000E+00  0.0000000000000E+00  0.0000000000000E+00
   309  3.0800000000000E+00  0.0000000000000E+00  0.0000000000000E+00
   310  3.0900000000000E+00  0.0000000000000E+00  0.0000000000000E+00
   311  3.1000000000000E+00  0.0000000000000E+00  0.0000000000000E+00
   312  3.1100000000000E+00  0.0000000000000E+00  0.0000000000000E+00
   313  3.1200000000000E+00  0.0000000000000E+00  0.0000000000000E+00
   314  3.1300000000000E+00  0.0000000000000E+00  0.0000000000000E+00
   315  3.1400000000000E+00  0.0000000000000E+00  0.0000000000000E+00
   316  3.1500000000000E+00  0.0000000000000E+00  0.0000000000000E+00
   317  3.1600000000000E+00  0.0000000000000E+00  0.0000000000000E+00
   318  3.1700000000000E+00  0.0000000000000E+00  0.0000000000000E+00
   319  3.1800000000000E+00  0.0000000000000E+00  0.0000000000000E+00
   320  3.1900000000000E+00  0.0000000000000E+00  0.0000000000000E+00
   321  3.2000000000000E+00  0.0000000000000E+00  0.0000000000000E+00
   322  3.2100000000000E+00  0.0000000000000E+00  0.0000000000000E+00
   323  3.2200000000000E+00  0.0000000000000E+00  0.0000000000000E+00
   324  3.2300000000000E+00  0.0000000000000E+00  0.0000000000000E+00
   325  3.2400000000000E+00  0.0000000000000E+00  0.0000000000000E+00
   326  3.2500000000000E+00  0.0000000000000E+00  0.0000000000000E+00
   327  3.2600000000000E+00  0.0000000000000E+00  0.0000000000000E+00
   328  3.2700000000000E+00  0.0000000000000E+00  0.0000000000000E+00
   329  3.2800000000000E+00  0.0000000000000E+00  0.0000000000000E+00
   330  3.2900000000000E+00  0.0000000000000E+00  0.0000000000000E+00
   331  3.3000000000000E+00  0.0000000000000E+00  0.0000000000000E+00
   332  3.3100000000000E+00  0.0000000000000E+00  0.0000000000000E+00
   333  3.3200000000000E+00  0.0000000000000E+00  0.0000000000000E+00
   334  3.3300000000000E+00  0.0000000000000E+00  0.0000000000000E+00
   335  3.3400000000000E+00  0.0000000000000E+00  0.0000000000000E+00
   336  3.3500000000000E+00  0.0000000000000E+00  0.0000000000000E+00
   337  3.3600000000000E+00  0.0000000000000E+00  0.0000000000000E+00
   338  3.3700000000000E+00  0.0000000000000E+00  0.0000000000000E+00
   339  3.3800000000000E+00  0.0000000000000E+00  0.0000000000000E+00
   340  3.3900000000000E+00  0.0000000000000E+00  0.0000000000000E+00
   341  3.4000000000000E+00  0.0000000000000E+00  0.0000000000000E+00
   342  3.4100000000000E+00  0.0000000000000E+00  0.0000000000000E+00
   343  3.4200000000000E+00  0.0000000000000E+00  0.0000000000000E+00
   344  3.4300000000000E+00  0.0000000000000E+00  0.0000000000000E+00
   345  3.4400000000000E+00  0.0000000000000E+00  0.0000000000000E+00
   346  3.4500000000000E+00  0.0000000000000E+00  0.0000000000000E+00
   347  3.4600000000000E+00  0.0000000000000E+00  0.0000000000000E+00
   348  3.4700000000000E+00  0.0000000000000E+00  0.0000000000000E+00
   349  3.4800000000000E+00  0.0000000000000E+00  0.0000000000000E+00
   350  3.4900000000000E+00  0.0000000000000E+00  0.0000000000000E+00
   351  3.5000000000000E+00  0.0000000000000E+00  0.0000000000000E+00
   352  3.5100000000000E+00  0.0000000000000E+00  0.0000000000000E+00
   353  3.5200000000000E+00  0.0000000000000E+00  0.0000000000000E+00
   354  3.5300000000000E+00  0.0000000000000E+00  0.0000000000000E+00
   355  3.5400000000000E+00  0.0000000000000E+00  0.0000000000000E+00
   356  3.5500000000000E+00  0.0000000000000E+00  0.0000000000000E+00
   357  3.5600000000000E+00  0.0000000000000E+00  0.0000000000000E+00
   358  3.5700000000000E+00  0.0000000000000E+00  0.0000000000000E+00
   359  3.5800000000000E+00  0.0000000000000E+00  0.0000000000000E+00
   360  3.5900000000000E+00  0.0000000000000E+00  0.0000000000000E+00
   361  3.6000000000000E+00  0.0000000000000E+00  0.0000000000000E+00
   362  3.6100000000000E+00  0.0000000000000E+00  0.0000000000000E+00
   363  3.6200000000000E+00  0.0000000000000E+00  0.0000000000000E+00
   364  3.6300000000000E+00  0.0000000000000E+00  0.0000000000000E+00
   365  3.6400000000000E+00  0.0000000000000E+00  0.0000000000000E+00
   366  3.6500000000000E+00  0.0000000000000E+00  0.0000000000000E+00
   367  3.6600000000000E+00  0.0000000000000E+00  0.0000000000000E+00
   368  3.6700000000000E+00  0.0000000000000E+00  0.0000000000000E+00
   369  3.6800000000000E+00  0.0000000000000E+00  0.0000000000000E+00
   370  3.6900000000000E+00  0.0000000000000E+00  0.0000000000000E+00
   371  3.7000000000000E+00  0.0000000000000E+00  0.0000000000000E+00
   372  3.7100000000000E+00  0.0000000000000E+00  0.0000000000000E+00
   373  3.7200000000000E+00  0.0000000000000E+00  0.0000000000000E+00
   374  3.7300000000000E+00  0.0000000000000E+00  0.0000000000000E+00
   375  3.7400000000000E+00  0.0000000000000E+00  0.0000000000000E+00
   376  3.7500000000000E+00  0.0000000000000E+00  0.0000000000000E+00
   377  3.7600000000000E+00  0.0000000000000E+00  0.0000000000000E+00
   378  3.7700000000000E+00  0.0000000000000E+00  0.0000000000000E+00
   379  3.7800000000000E+00  0.0000000000000E+00  0.0000000000000E+00
   380  3.7900000000000E+00  0.0000000000000E+00  0.0000000000000E+00
   381  3.8000000000000E+00  0.0000000000000E+00  0.0000000000000E+00
   382  3.8100000000000E+00  0.0000000000000E+00  0.0000000000000E+00
   383  3.8200000000000E+00  0.0000000000000E+00  0.0000000000000E+00
   384  3.8300000000000E+00  0.0000000000000E+00  0.0000000000000E+00
   385  3.8400000000000E+00  0.0000000000000E+00  0.0000000000000E+00
   386  3.8500000000000E+00  0.0000000000000E+00  0.0000000000000E+00
   387  3.8600000000000E+00  0.0000000000000E+00  0.0000000000000E+00
   388  3.8700000000000E+00  0.0000000000000E+00  0.0000000000000E+00
   389  3.8800000000000E+00  0.0000000000000E+00  0.0000000000000E+00
   390  3.8900000000000E+00  0.0000000000000E+00  0.0000000000000E+00
   391  3.9000000000000E+00  0.0000000000000E+00  0.0000000000000E+00
   392  3.9100000000000E+00  0.0000000000000E+00  0.0000000000000E+00
   393  3.9200000000000E+00  0.0000000000000E+00  0.0000000000000E+00
   394  3.9300000000000E+00  0.0000000000000E+00  0.0000000000000E+00
   395  3.9400000000000E+00  0.0000000000000E+00  0.0000000000000E+00
   396  3.9500000000000E+00  0.0000000000000E+00  0.0000000000000E+00
   397  3.9600000000000E+00  0.0000000000000E+00  0.0000000000000E+00
   398  3.9700000000000E+00  0.0000000000000E+00  0.0000000000000E+00
   399  3.9800000000000E+00  0.0000000000000E+00  0.0000000000000E+00
   400  3.9900000000000E+00  0.0000000000000E+00  0.0000000000000E+00
   401  4.0000000000000E+00  0.0000000000000E+00  0.0000000000000E+00
   402  4.0100000000000E+00  0.0000000000000E+00  0.0000000000000E+00
   403  4.0200000000000E+00  0.0000000000000E+00  0.0000000000000E+00
   404  4.0300000000000E+00  0.0000000000000E+00  0.0000000000000E+00
   405  4.0400000000000E+00  0.0000000000000E+00  0.0000000000000E+00
   406  4.0500000000000E+00  0.0000000000000E+00  0.0000000000000E+00
   407  4.0600000000000E+00  0.0000000000000E+00  0.0000000000000E+00
   408  4.0700000000000E+00  0.0000000000000E+00  0.0000000000000E+00
   409  4.0800000000000E+00  0.0000000000000E+00  0.0000000000000E+00
   410  4.0900000000000E+00  0.0000000000000E+00  0.0000000000000E+00
   411  4.1000000000000E+00  0.0000000000000E+00  0.0000000000000E+00
   412  4.1100000000000E+00  0.0000000000000E+00  0.0000000000000E+00
   413  4.1200000000000E+00  0.0000000000000E+00  0.0000000000000E+00
   414  4.1300000000000E+00  0.0000000000000E+00  0.0000000000000E+00
   415  4.1400000000000E+00  0.0000000000000E+00  0.0000000000000E+00
   416  4.1500000000000E+00  0.0000000000000E+00  0.0000000000000E+00
   417  4.1600000000000E+00  0.0000000000000E+00  0.0000000000000E+00
   418  4.1700000000000E+00  0.0000000000000E+00  0.0000000000000E+00
   419  4.1800000000000E+00  0.0000000000000E+00  0.0000000000000E+00
   420  4.1900000000000E+00  0.0000000000000E+00  0.0000000000000E+00
   421  4.2000000000000E+00  0.0000000000000E+00  0.0000000000000E+00
   422  4.2100000000000E+00  0.0000000000000E+00  0.0000000000000E+00
   423  4.2200000000000E+00  0.0000000000000E+00  0.0000000000000E+00