Hf   ONCVPSP-2.1.1   r_core=    1.91063 2.12716 2.05238 3.00632
    72.0000   26.0000   150105   zatom,zion,pspd
    8   11   3   4   600   0   pspcod,pspxc,lmax,lloc,mmax,r2well
    5.99000000   0.00000000   0.00000000   rchrg fchrg qchrg
    2   2   2   2   0   nproj
    1   1   extension_switch
       0                         1.0610932012000E+01 -1.7634539750500E-01
     1  0.0000000000000E+00  0.0000000000000E+00  0.0000000000000E+00
     2  1.0000000000000E-02  6.8570140167000E-02 -1.0409358662000E-03
     3  2.0000000000000E-02  1.3700377730000E-01 -2.0798795711000E-03
     4  3.0000000000000E-02  2.0516476232000E-01 -3.1147942021000E-03
     5  4.0000000000000E-02  2.7291765307000E-01 -4.1435531735000E-03
     6  5.0000000000000E-02  3.4012806538000E-01 -5.1638949709000E-03
     7  6.0000000000000E-02  4.0666302118000E-01 -6.1733774119000E-03
     8  7.0000000000000E-02  4.7239129285000E-01 -7.1693312898000E-03
     9  8.0000000000000E-02  5.3718374263000E-01 -8.1488132958000E-03
    10  9.0000000000000E-02  6.0091365640000E-01 -9.1085581439000E-03
    11  1.0000000000000E-01  6.6345707074000E-01 -1.0044929858000E-02
    12  1.1000000000000E-01  7.2469309243000E-01 -1.0953872224000E-02
    13  1.2000000000000E-01  7.8450420936000E-01 -1.1830858454000E-02
    14  1.3000000000000E-01  8.4277659225000E-01 -1.2670840159000E-02
    15  1.4000000000000E-01  8.9940038600000E-01 -1.3468195763000E-02
    16  1.5000000000000E-01  9.5426998999000E-01 -1.4216678598000E-02
    17  1.6000000000000E-01  1.0072843267000E+00 -1.4909364865000E-02
    18  1.7000000000000E-01  1.0583470971000E+00 -1.5538601867000E-02
    19  1.8000000000000E-01  1.1073670237000E+00 -1.6095956771000E-02
    20  1.9000000000000E-01  1.1542580781000E+00 -1.6572166448000E-02
    21  2.0000000000000E-01  1.1989396947000E+00 -1.6957088679000E-02
    22  2.1000000000000E-01  1.2413369687000E+00 -1.7239655516000E-02
    23  2.2000000000000E-01  1.2813808376000E+00 -1.7407829083000E-02
    24  2.3000000000000E-01  1.3190082463000E+00 -1.7448560599000E-02
    25  2.4000000000000E-01  1.3541622958000E+00 -1.7347753206000E-02
    26  2.5000000000000E-01  1.3867923717000E+00 -1.7090229456000E-02
    27  2.6000000000000E-01  1.4168542581000E+00 -1.6659703611000E-02
    28  2.7000000000000E-01  1.4443102299000E+00 -1.6038760364000E-02
    29  2.8000000000000E-01  1.4691291275000E+00 -1.5208839832000E-02
    30  2.9000000000000E-01  1.4912864128000E+00 -1.4150230020000E-02
    31  3.0000000000000E-01  1.5107642048000E+00 -1.2842067401000E-02
    32  3.1000000000000E-01  1.5275512966000E+00 -1.1262346243000E-02
    33  3.2000000000000E-01  1.5416431517000E+00 -9.3879374388000E-03
    34  3.3000000000000E-01  1.5530418813000E+00 -7.1946174046000E-03
    35  3.4000000000000E-01  1.5617562020000E+00 -4.6571075809000E-03
    36  3.5000000000000E-01  1.5678013734000E+00 -1.7491253268000E-03
    37  3.6000000000000E-01  1.5711991167000E+00  1.5565535997000E-03
    38  3.7000000000000E-01  1.5719775134000E+00  5.2880208992000E-03
    39  3.8000000000000E-01  1.5701708856000E+00  9.4741476941000E-03
    40  3.9000000000000E-01  1.5658196574000E+00  1.4144485880000E-02
    41  4.0000000000000E-01  1.5589701982000E+00  1.9329155479000E-02
    42  4.1000000000000E-01  1.5496746483000E+00  2.5058719419000E-02
    43  4.2000000000000E-01  1.5379907267000E+00  3.1364045605000E-02
    44  4.3000000000000E-01  1.5239815231000E+00  3.8276156498000E-02
    45  4.4000000000000E-01  1.5077152732000E+00  4.5826066484000E-02
    46  4.5000000000000E-01  1.4892651190000E+00  5.4044607432000E-02
    47  4.6000000000000E-01  1.4687088548000E+00  6.2962242986000E-02
    48  4.7000000000000E-01  1.4461286592000E+00  7.2608872306000E-02
    49  4.8000000000000E-01  1.4216108144000E+00  8.3013624216000E-02
    50  4.9000000000000E-01  1.3952454182000E+00  9.4204645314000E-02
    51  5.0000000000000E-01  1.3671260828000E+00  1.0620887937000E-01
    52  5.1000000000000E-01  1.3373496012000E+00  1.1905182234000E-01
    53  5.2000000000000E-01  1.3060156545000E+00  1.3275731039000E-01
    54  5.3000000000000E-01  1.2732264839000E+00  1.4734728159000E-01
    55  5.4000000000000E-01  1.2390865063000E+00  1.6284149990000E-01
    56  5.5000000000000E-01  1.2037020670000E+00  1.7925738247000E-01
    57  5.6000000000000E-01  1.1671809796000E+00  1.9660967435000E-01
    58  5.7000000000000E-01  1.1296323048000E+00  2.1491030312000E-01
    59  5.8000000000000E-01  1.0911658724000E+00  2.3416805195000E-01
    60  5.9000000000000E-01  1.0518920866000E+00  2.5438844294000E-01
    61  6.0000000000000E-01  1.0119213911000E+00  2.7557338673000E-01
    62  6.1000000000000E-01  9.7136413797000E-01  2.9772112303000E-01
    63  6.2000000000000E-01  9.3033005433000E-01  3.2082589266000E-01
    64  6.3000000000000E-01  8.8892800636000E-01  3.4487782480000E-01
    65  6.4000000000000E-01  8.4726574955000E-01  3.6986282101000E-01
    66  6.5000000000000E-01  8.0544937495000E-01  3.9576225909000E-01
    67  6.6000000000000E-01  7.6358320074000E-01  4.2255299700000E-01
    68  6.7000000000000E-01  7.2176945865000E-01  4.5020725457000E-01
    69  6.8000000000000E-01  6.8010789316000E-01  4.7869246611000E-01
    70  6.9000000000000E-01  6.3869551762000E-01  5.0797124536000E-01
    71  7.0000000000000E-01  5.9762640410000E-01  5.3800138273000E-01
    72  7.1000000000000E-01  5.5699140602000E-01  5.6873582347000E-01
    73  7.2000000000000E-01  5.1687796211000E-01  6.0012270449000E-01
    74  7.3000000000000E-01  4.7736970711000E-01  6.3210533674000E-01
    75  7.4000000000000E-01  4.3854644461000E-01  6.6462236396000E-01
    76  7.5000000000000E-01  4.0048390203000E-01  6.9760784761000E-01
    77  7.6000000000000E-01  3.6325355984000E-01  7.3099140846000E-01
    78  7.7000000000000E-01  3.2692249935000E-01  7.6469839922000E-01
    79  7.8000000000000E-01  2.9155326955000E-01  7.9865010832000E-01
    80  7.9000000000000E-01  2.5720377323000E-01  8.3276399422000E-01
    81  8.0000000000000E-01  2.2392718105000E-01  8.6695394886000E-01
    82  8.1000000000000E-01  1.9177184335000E-01  9.0113059059000E-01
    83  8.2000000000000E-01  1.6078122012000E-01  9.3520159361000E-01
    84  8.3000000000000E-01  1.3099388366000E-01  9.6907203159000E-01
    85  8.4000000000000E-01  1.0244348586000E-01  1.0026447536000E+00
    86  8.5000000000000E-01  7.5158761947000E-02  1.0358207833000E+00
    87  8.6000000000000E-01  4.9163553388000E-02  1.0684997404000E+00
    88  8.7000000000000E-01  2.4476849657000E-02  1.1005802821000E+00
    89  8.8000000000000E-01  1.1128483312000E-03  1.1319605623000E+00
    90  8.9000000000000E-01 -2.0918949206000E-02  1.1625386728000E+00
    91  9.0000000000000E-01 -4.1613692317000E-02  1.1922132068000E+00
    92  9.1000000000000E-01 -6.0971029473000E-02  1.2208837075000E+00
    93  9.2000000000000E-01 -7.8994986259000E-02  1.2484511764000E+00
    94  9.3000000000000E-01 -9.5693826133000E-02  1.2748185869000E+00
    95  9.4000000000000E-01 -1.1107989378000E-01  1.2998913950000E+00
    96  9.5000000000000E-01 -1.2516944536000E-01  1.3235780464000E+00
    97  9.6000000000000E-01 -1.3798246667000E-01  1.3457904775000E+00
    98  9.7000000000000E-01 -1.4954248060000E-01  1.3664446070000E+00
    99  9.8000000000000E-01 -1.5987634507000E-01  1.3854608126000E+00
   100  9.9000000000000E-01 -1.6901405530000E-01  1.4027641546000E+00
   101  1.0000000000000E+00 -1.7698851527000E-01  1.4182854456000E+00
   102  1.0100000000000E+00 -1.8383529366000E-01  1.4319612465000E+00
   103  1.0200000000000E+00 -1.8959240593000E-01  1.4437342592000E+00
   104  1.0300000000000E+00 -1.9430008041000E-01  1.4535537465000E+00
   105  1.0400000000000E+00 -1.9800052428000E-01  1.4613758612000E+00
   106  1.0500000000000E+00 -2.0073780430000E-01  1.4671634512000E+00
   107  1.0600000000000E+00 -2.0255729710000E-01  1.4708878259000E+00
   108  1.0700000000000E+00 -2.0350568653000E-01  1.4725276405000E+00
   109  1.0800000000000E+00 -2.0363068614000E-01  1.4720693922000E+00
   110  1.0900000000000E+00 -2.0298086216000E-01  1.4695074318000E+00
   111  1.1000000000000E+00 -2.0160546013000E-01  1.4648440349000E+00
   112  1.1100000000000E+00 -1.9955369313000E-01  1.4580906880000E+00
   113  1.1200000000000E+00 -1.9687504840000E-01  1.4492665425000E+00
   114  1.1300000000000E+00 -1.9361898404000E-01  1.4383987712000E+00
   115  1.1400000000000E+00 -1.8983495438000E-01  1.4255221935000E+00
   116  1.1500000000000E+00 -1.8557122309000E-01  1.4106809026000E+00
   117  1.1600000000000E+00 -1.8087567939000E-01  1.3939260469000E+00
   118  1.1700000000000E+00 -1.7579561968000E-01  1.3753159789000E+00
   119  1.1800000000000E+00 -1.7037723536000E-01  1.3549166227000E+00
   120  1.1900000000000E+00 -1.6466501692000E-01  1.3328013436000E+00
   121  1.2000000000000E+00 -1.5870248988000E-01  1.3090495652000E+00
   122  1.2100000000000E+00 -1.5253243572000E-01  1.2837465938000E+00
   123  1.2200000000000E+00 -1.4619472035000E-01  1.2569843794000E+00
   124  1.2300000000000E+00 -1.3972812090000E-01  1.2288595034000E+00
   125  1.2400000000000E+00 -1.3317035229000E-01  1.1994733213000E+00
   126  1.2500000000000E+00 -1.2655623190000E-01  1.1689316443000E+00
   127  1.2600000000000E+00 -1.1991882563000E-01  1.1373435211000E+00
   128  1.2700000000000E+00 -1.1329015201000E-01  1.1048214784000E+00
   129  1.2800000000000E+00 -1.0669916831000E-01  1.0714801380000E+00
   130  1.2900000000000E+00 -1.0017287285000E-01  1.0374354533000E+00
   131  1.3000000000000E+00 -9.3737313462000E-02  1.0028058170000E+00
   132  1.3100000000000E+00 -8.7415078192000E-02  9.6770861627000E-01
   133  1.3200000000000E+00 -8.1227105897000E-02  9.3226096711000E-01
   134  1.3300000000000E+00 -7.5193474560000E-02  8.9658173574000E-01
   135  1.3400000000000E+00 -6.9330260071000E-02  8.6078427036000E-01
   136  1.3500000000000E+00 -6.3652905908000E-02  8.2498221468000E-01
   137  1.3600000000000E+00 -5.8174941199000E-02  7.8928724402000E-01
   138  1.3700000000000E+00 -5.2906976962000E-02  7.5380401426000E-01
   139  1.3800000000000E+00 -4.7859202253000E-02  7.1863793665000E-01
   140  1.3900000000000E+00 -4.3038921654000E-02  6.8388608321000E-01
   141  1.4000000000000E+00 -3.8452121241000E-02  6.4964107177000E-01
   142  1.4100000000000E+00 -3.4103796798000E-02  6.1599383001000E-01
   143  1.4200000000000E+00 -2.9996197767000E-02  5.8302225589000E-01
   144  1.4300000000000E+00 -2.6131428204000E-02  5.5080538928000E-01
   145  1.4400000000000E+00 -2.2509304420000E-02  5.1940991199000E-01
   146  1.4500000000000E+00 -1.9128819821000E-02  4.8889755513000E-01
   147  1.4600000000000E+00 -1.5987946581000E-02  4.5932522644000E-01
   148  1.4700000000000E+00 -1.3083036996000E-02  4.3073592002000E-01
   149  1.4800000000000E+00 -1.0410290872000E-02  4.0317490261000E-01
   150  1.4900000000000E+00 -7.9641598868000E-03  3.7666880687000E-01
   151  1.5000000000000E+00 -5.7389893806000E-03  3.5124584126000E-01
   152  1.5100000000000E+00 -3.7280171297000E-03  3.2692105062000E-01
   153  1.5200000000000E+00 -1.9240740451000E-03  3.0370452269000E-01
   154  1.5300000000000E+00 -3.1937701303000E-04  2.8159987088000E-01
   155  1.5400000000000E+00  1.0942907854000E-03  2.6060060867000E-01
   156  1.5500000000000E+00  2.3255545668000E-03  2.4069914154000E-01
   157  1.5600000000000E+00  3.3832753360000E-03  2.2187488581000E-01
   158  1.5700000000000E+00  4.2767391078000E-03  2.0410946206000E-01
   159  1.5800000000000E+00  5.0151612466000E-03  1.8737171938000E-01
   160  1.5900000000000E+00  5.6082204731000E-03  1.7163248370000E-01
   161  1.6000000000000E+00  6.0653527308000E-03  1.5685417930000E-01
   162  1.6100000000000E+00  6.3963950885000E-03  1.4299932397000E-01
   163  1.6200000000000E+00  6.6108877530000E-03  1.3002622792000E-01
   164  1.6300000000000E+00  6.7186686882000E-03  1.1789280224000E-01
   165  1.6400000000000E+00  6.7292937454000E-03  1.0655600574000E-01
   166  1.6500000000000E+00  6.6525169290000E-03  9.5973135592000E-02
   167  1.6600000000000E+00  6.4978532690000E-03  8.6103090755000E-02
   168  1.6700000000000E+00  6.2749536187000E-03  7.6906650844000E-02
   169  1.6800000000000E+00  5.9932739203000E-03  6.8348524638000E-02
   170  1.6900000000000E+00  5.6623975944000E-03  6.0396996524000E-02
   171  1.7000000000000E+00  5.2917700628000E-03  5.3027419137000E-02
   172  1.7100000000000E+00  4.8909584007000E-03  4.6218937643000E-02
   173  1.7200000000000E+00  4.4695781886000E-03  3.9964239177000E-02
   174  1.7300000000000E+00  4.0370057797000E-03  3.4252280466000E-02
   175  1.7400000000000E+00  3.6018589670000E-03  2.9077870823000E-02
   176  1.7500000000000E+00  3.1727171284000E-03  2.4431314889000E-02
   177  1.7600000000000E+00  2.7559290582000E-03  2.0293984197000E-02
   178  1.7700000000000E+00  2.3586725766000E-03  1.6649086895000E-02
   179  1.7800000000000E+00  1.9850628271000E-03  1.3470205437000E-02
   180  1.7900000000000E+00  1.6408267128000E-03  1.0733840839000E-02
   181  1.8000000000000E+00  1.3277802027000E-03  8.4088439928000E-03
   182  1.8100000000000E+00  1.0502166781000E-03  6.4662360198000E-03
   183  1.8200000000000E+00  8.0786367832000E-04  4.8725315487000E-03
   184  1.8300000000000E+00  6.0283209213000E-04  3.5943421933000E-03
   185  1.8400000000000E+00  4.3354969680000E-04  2.5975040289000E-03
   186  1.8500000000000E+00  2.9961546180000E-04  1.8463276102000E-03
   187  1.8600000000000E+00  1.9828725294000E-04  1.3060743981000E-03
   188  1.8700000000000E+00  1.2658148928000E-04  9.4096313381000E-04
   189  1.8800000000000E+00  8.0686045166000E-05  7.1556667820000E-04
   190  1.8900000000000E+00  5.5332098460000E-05  6.0190214054000E-04
   191  1.9000000000000E+00  4.6105780598000E-05  5.7215965004000E-04
   192  1.9100000000000E+00  4.2014499968000E-05  5.3519889718000E-04
   193  1.9200000000000E+00  2.3998845856000E-05  3.1431093799000E-04
   194  1.9300000000000E+00  5.4738491074000E-06  7.3185532034000E-05
   195  1.9400000000000E+00 -2.5009231691000E-06 -3.1829237565000E-05
   196  1.9500000000000E+00 -1.9431443934000E-06 -2.4730389676000E-05
   197  1.9600000000000E+00  0.0000000000000E+00  0.0000000000000E+00
   198  1.9700000000000E+00  0.0000000000000E+00  0.0000000000000E+00
   199  1.9800000000000E+00  0.0000000000000E+00  0.0000000000000E+00
   200  1.9900000000000E+00  0.0000000000000E+00  0.0000000000000E+00
   201  2.0000000000000E+00  0.0000000000000E+00  0.0000000000000E+00
   202  2.0100000000000E+00  0.0000000000000E+00  0.0000000000000E+00
   203  2.0200000000000E+00  0.0000000000000E+00  0.0000000000000E+00
   204  2.0300000000000E+00  0.0000000000000E+00  0.0000000000000E+00
   205  2.0400000000000E+00  0.0000000000000E+00  0.0000000000000E+00
   206  2.0500000000000E+00  0.0000000000000E+00  0.0000000000000E+00
   207  2.0600000000000E+00  0.0000000000000E+00  0.0000000000000E+00
   208  2.0700000000000E+00  0.0000000000000E+00  0.0000000000000E+00
   209  2.0800000000000E+00  0.0000000000000E+00  0.0000000000000E+00
   210  2.0900000000000E+00  0.0000000000000E+00  0.0000000000000E+00
   211  2.1000000000000E+00  0.0000000000000E+00  0.0000000000000E+00
   212  2.1100000000000E+00  0.0000000000000E+00  0.0000000000000E+00
   213  2.1200000000000E+00  0.0000000000000E+00  0.0000000000000E+00
   214  2.1300000000000E+00  0.0000000000000E+00  0.0000000000000E+00
   215  2.1400000000000E+00  0.0000000000000E+00  0.0000000000000E+00
   216  2.1500000000000E+00  0.0000000000000E+00  0.0000000000000E+00
   217  2.1600000000000E+00  0.0000000000000E+00  0.0000000000000E+00
   218  2.1700000000000E+00  0.0000000000000E+00  0.0000000000000E+00
   219  2.1800000000000E+00  0.0000000000000E+00  0.0000000000000E+00
   220  2.1900000000000E+00  0.0000000000000E+00  0.0000000000000E+00
   221  2.2000000000000E+00  0.0000000000000E+00  0.0000000000000E+00
   222  2.2100000000000E+00  0.0000000000000E+00  0.0000000000000E+00
   223  2.2200000000000E+00  0.0000000000000E+00  0.0000000000000E+00
   224  2.2300000000000E+00  0.0000000000000E+00  0.0000000000000E+00
   225  2.2400000000000E+00  0.0000000000000E+00  0.0000000000000E+00
   226  2.2500000000000E+00  0.0000000000000E+00  0.0000000000000E+00
   227  2.2600000000000E+00  0.0000000000000E+00  0.0000000000000E+00
   228  2.2700000000000E+00  0.0000000000000E+00  0.0000000000000E+00
   229  2.2800000000000E+00  0.0000000000000E+00  0.0000000000000E+00
   230  2.2900000000000E+00  0.0000000000000E+00  0.0000000000000E+00
   231  2.3000000000000E+00  0.0000000000000E+00  0.0000000000000E+00
   232  2.3100000000000E+00  0.0000000000000E+00  0.0000000000000E+00
   233  2.3200000000000E+00  0.0000000000000E+00  0.0000000000000E+00
   234  2.3300000000000E+00  0.0000000000000E+00  0.0000000000000E+00
   235  2.3400000000000E+00  0.0000000000000E+00  0.0000000000000E+00
   236  2.3500000000000E+00  0.0000000000000E+00  0.0000000000000E+00
   237  2.3600000000000E+00  0.0000000000000E+00  0.0000000000000E+00
   238  2.3700000000000E+00  0.0000000000000E+00  0.0000000000000E+00
   239  2.3800000000000E+00  0.0000000000000E+00  0.0000000000000E+00
   240  2.3900000000000E+00  0.0000000000000E+00  0.0000000000000E+00
   241  2.4000000000000E+00  0.0000000000000E+00  0.0000000000000E+00
   242  2.4100000000000E+00  0.0000000000000E+00  0.0000000000000E+00
   243  2.4200000000000E+00  0.0000000000000E+00  0.0000000000000E+00
   244  2.4300000000000E+00  0.0000000000000E+00  0.0000000000000E+00
   245  2.4400000000000E+00  0.0000000000000E+00  0.0000000000000E+00
   246  2.4500000000000E+00  0.0000000000000E+00  0.0000000000000E+00
   247  2.4600000000000E+00  0.0000000000000E+00  0.0000000000000E+00
   248  2.4700000000000E+00  0.0000000000000E+00  0.0000000000000E+00
   249  2.4800000000000E+00  0.0000000000000E+00  0.0000000000000E+00
   250  2.4900000000000E+00  0.0000000000000E+00  0.0000000000000E+00
   251  2.5000000000000E+00  0.0000000000000E+00  0.0000000000000E+00
   252  2.5100000000000E+00  0.0000000000000E+00  0.0000000000000E+00
   253  2.5200000000000E+00  0.0000000000000E+00  0.0000000000000E+00
   254  2.5300000000000E+00  0.0000000000000E+00  0.0000000000000E+00
   255  2.5400000000000E+00  0.0000000000000E+00  0.0000000000000E+00
   256  2.5500000000000E+00  0.0000000000000E+00  0.0000000000000E+00
   257  2.5600000000000E+00  0.0000000000000E+00  0.0000000000000E+00
   258  2.5700000000000E+00  0.0000000000000E+00  0.0000000000000E+00
   259  2.5800000000000E+00  0.0000000000000E+00  0.0000000000000E+00
   260  2.5900000000000E+00  0.0000000000000E+00  0.0000000000000E+00
   261  2.6000000000000E+00  0.0000000000000E+00  0.0000000000000E+00
   262  2.6100000000000E+00  0.0000000000000E+00  0.0000000000000E+00
   263  2.6200000000000E+00  0.0000000000000E+00  0.0000000000000E+00
   264  2.6300000000000E+00  0.0000000000000E+00  0.0000000000000E+00
   265  2.6400000000000E+00  0.0000000000000E+00  0.0000000000000E+00
   266  2.6500000000000E+00  0.0000000000000E+00  0.0000000000000E+00
   267  2.6600000000000E+00  0.0000000000000E+00  0.0000000000000E+00
   268  2.6700000000000E+00  0.0000000000000E+00  0.0000000000000E+00
   269  2.6800000000000E+00  0.0000000000000E+00  0.0000000000000E+00
   270  2.6900000000000E+00  0.0000000000000E+00  0.0000000000000E+00
   271  2.7000000000000E+00  0.0000000000000E+00  0.0000000000000E+00
   272  2.7100000000000E+00  0.0000000000000E+00  0.0000000000000E+00
   273  2.7200000000000E+00  0.0000000000000E+00  0.0000000000000E+00
   274  2.7300000000000E+00  0.0000000000000E+00  0.0000000000000E+00
   275  2.7400000000000E+00  0.0000000000000E+00  0.0000000000000E+00
   276  2.7500000000000E+00  0.0000000000000E+00  0.0000000000000E+00
   277  2.7600000000000E+00  0.0000000000000E+00  0.0000000000000E+00
   278  2.7700000000000E+00  0.0000000000000E+00  0.0000000000000E+00
   279  2.7800000000000E+00  0.0000000000000E+00  0.0000000000000E+00
   280  2.7900000000000E+00  0.0000000000000E+00  0.0000000000000E+00
   281  2.8000000000000E+00  0.0000000000000E+00  0.0000000000000E+00
   282  2.8100000000000E+00  0.0000000000000E+00  0.0000000000000E+00
   283  2.8200000000000E+00  0.0000000000000E+00  0.0000000000000E+00
   284  2.8300000000000E+00  0.0000000000000E+00  0.0000000000000E+00
   285  2.8400000000000E+00  0.0000000000000E+00  0.0000000000000E+00
   286  2.8500000000000E+00  0.0000000000000E+00  0.0000000000000E+00
   287  2.8600000000000E+00  0.0000000000000E+00  0.0000000000000E+00
   288  2.8700000000000E+00  0.0000000000000E+00  0.0000000000000E+00
   289  2.8800000000000E+00  0.0000000000000E+00  0.0000000000000E+00
   290  2.8900000000000E+00  0.0000000000000E+00  0.0000000000000E+00
   291  2.9000000000000E+00  0.0000000000000E+00  0.0000000000000E+00
   292  2.9100000000000E+00  0.0000000000000E+00  0.0000000000000E+00
   293  2.9200000000000E+00  0.0000000000000E+00  0.0000000000000E+00
   294  2.9300000000000E+00  0.0000000000000E+00  0.0000000000000E+00
   295  2.9400000000000E+00  0.0000000000000E+00  0.0000000000000E+00
   296  2.9500000000000E+00  0.0000000000000E+00  0.0000000000000E+00
   297  2.9600000000000E+00  0.0000000000000E+00  0.0000000000000E+00
   298  2.9700000000000E+00  0.0000000000000E+00  0.0000000000000E+00
   299  2.9800000000000E+00  0.0000000000000E+00  0.0000000000000E+00
   300  2.9900000000000E+00  0.0000000000000E+00  0.0000000000000E+00
   301  3.0000000000000E+00  0.0000000000000E+00  0.0000000000000E+00
   302  3.0100000000000E+00  0.0000000000000E+00  0.0000000000000E+00
   303  3.0200000000000E+00  0.0000000000000E+00  0.0000000000000E+00
   304  3.0300000000000E+00  0.0000000000000E+00  0.0000000000000E+00
   305  3.0400000000000E+00  0.0000000000000E+00  0.0000000000000E+00
   306  3.0500000000000E+00  0.0000000000000E+00  0.0000000000000E+00
   307  3.0600000000000E+00  0.0000000000000E+00  0.0000000000000E+00
   308  3.0700000000000E+00  0.0000000000000E+00  0.0000000000000E+00
   309  3.0800000000000E+00  0.0000000000000E+00  0.0000000000000E+00
   310  3.0900000000000E+00  0.0000000000000E+00  0.0000000000000E+00
   311  3.1000000000000E+00  0.0000000000000E+00  0.0000000000000E+00
   312  3.1100000000000E+00  0.0000000000000E+00  0.0000000000000E+00
   313  3.1200000000000E+00  0.0000000000000E+00  0.0000000000000E+00
   314  3.1300000000000E+00  0.0000000000000E+00  0.0000000000000E+00
   315  3.1400000000000E+00  0.0000000000000E+00  0.0000000000000E+00
   316  3.1500000000000E+00  0.0000000000000E+00  0.0000000000000E+00
   317  3.1600000000000E+00  0.0000000000000E+00  0.0000000000000E+00
   318  3.1700000000000E+00  0.0000000000000E+00  0.0000000000000E+00
   319  3.1800000000000E+00  0.0000000000000E+00  0.0000000000000E+00
   320  3.1900000000000E+00  0.0000000000000E+00  0.0000000000000E+00
   321  3.2000000000000E+00  0.0000000000000E+00  0.0000000000000E+00
   322  3.2100000000000E+00  0.0000000000000E+00  0.0000000000000E+00
   323  3.2200000000000E+00  0.0000000000000E+00  0.0000000000000E+00
   324  3.2300000000000E+00  0.0000000000000E+00  0.0000000000000E+00
   325  3.2400000000000E+00  0.0000000000000E+00  0.0000000000000E+00
   326  3.2500000000000E+00  0.0000000000000E+00  0.0000000000000E+00
   327  3.2600000000000E+00  0.0000000000000E+00  0.0000000000000E+00
   328  3.2700000000000E+00  0.0000000000000E+00  0.0000000000000E+00
   329  3.2800000000000E+00  0.0000000000000E+00  0.0000000000000E+00
   330  3.2900000000000E+00  0.0000000000000E+00  0.0000000000000E+00
   331  3.3000000000000E+00  0.0000000000000E+00  0.0000000000000E+00
   332  3.3100000000000E+00  0.0000000000000E+00  0.0000000000000E+00
   333  3.3200000000000E+00  0.0000000000000E+00  0.0000000000000E+00
   334  3.3300000000000E+00  0.0000000000000E+00  0.0000000000000E+00
   335  3.3400000000000E+00  0.0000000000000E+00  0.0000000000000E+00
   336  3.3500000000000E+00  0.0000000000000E+00  0.0000000000000E+00
   337  3.3600000000000E+00  0.0000000000000E+00  0.0000000000000E+00
   338  3.3700000000000E+00  0.0000000000000E+00  0.0000000000000E+00
   339  3.3800000000000E+00  0.0000000000000E+00  0.0000000000000E+00
   340  3.3900000000000E+00  0.0000000000000E+00  0.0000000000000E+00
   341  3.4000000000000E+00  0.0000000000000E+00  0.0000000000000E+00
   342  3.4100000000000E+00  0.0000000000000E+00  0.0000000000000E+00
   343  3.4200000000000E+00  0.0000000000000E+00  0.0000000000000E+00
   344  3.4300000000000E+00  0.0000000000000E+00  0.0000000000000E+00
   345  3.4400000000000E+00  0.0000000000000E+00  0.0000000000000E+00
   346  3.4500000000000E+00  0.0000000000000E+00  0.0000000000000E+00
   347  3.4600000000000E+00  0.0000000000000E+00  0.0000000000000E+00
   348  3.4700000000000E+00  0.0000000000000E+00  0.0000000000000E+00
   349  3.4800000000000E+00  0.0000000000000E+00  0.0000000000000E+00
   350  3.4900000000000E+00  0.0000000000000E+00  0.0000000000000E+00
   351  3.5000000000000E+00  0.0000000000000E+00  0.0000000000000E+00
   352  3.5100000000000E+00  0.0000000000000E+00  0.0000000000000E+00
   353  3.5200000000000E+00  0.0000000000000E+00  0.0000000000000E+00
   354  3.5300000000000E+00  0.0000000000000E+00  0.0000000000000E+00
   355  3.5400000000000E+00  0.0000000000000E+00  0.0000000000000E+00
   356  3.5500000000000E+00  0.0000000000000E+00  0.0000000000000E+00
   357  3.5600000000000E+00  0.0000000000000E+00  0.0000000000000E+00
   358  3.5700000000000E+00  0.0000000000000E+00  0.0000000000000E+00
   359  3.5800000000000E+00  0.0000000000000E+00  0.0000000000000E+00
   360  3.5900000000000E+00  0.0000000000000E+00  0.0000000000000E+00
   361  3.6000000000000E+00  0.0000000000000E+00  0.0000000000000E+00
   362  3.6100000000000E+00  0.0000000000000E+00  0.0000000000000E+00
   363  3.6200000000000E+00  0.0000000000000E+00  0.0000000000000E+00
   364  3.6300000000000E+00  0.0000000000000E+00  0.0000000000000E+00
   365  3.6400000000000E+00  0.0000000000000E+00  0.0000000000000E+00
   366  3.6500000000000E+00  0.0000000000000E+00  0.0000000000000E+00
   367  3.6600000000000E+00  0.0000000000000E+00  0.0000000000000E+00
   368  3.6700000000000E+00  0.0000000000000E+00  0.0000000000000E+00
   369  3.6800000000000E+00  0.0000000000000E+00  0.0000000000000E+00
   370  3.6900000000000E+00  0.0000000000000E+00  0.0000000000000E+00
   371  3.7000000000000E+00  0.0000000000000E+00  0.0000000000000E+00
   372  3.7100000000000E+00  0.0000000000000E+00  0.0000000000000E+00
   373  3.7200000000000E+00  0.0000000000000E+00  0.0000000000000E+00
   374  3.7300000000000E+00  0.0000000000000E+00  0.0000000000000E+00
   375  3.7400000000000E+00  0.0000000000000E+00  0.0000000000000E+00
   376  3.7500000000000E+00  0.0000000000000E+00  0.0000000000000E+00
   377  3.7600000000000E+00  0.0000000000000E+00  0.0000000000000E+00
   378  3.7700000000000E+00  0.0000000000000E+00  0.0000000000000E+00
   379  3.7800000000000E+00  0.0000000000000E+00  0.0000000000000E+00
   380  3.7900000000000E+00  0.0000000000000E+00  0.0000000000000E+00
   381  3.8000000000000E+00  0.0000000000000E+00  0.0000000000000E+00
   382  3.8100000000000E+00  0.0000000000000E+00  0.0000000000000E+00
   383  3.8200000000000E+00  0.0000000000000E+00  0.0000000000000E+00
   384  3.8300000000000E+00  0.0000000000000E+00  0.0000000000000E+00
   385  3.8400000000000E+00  0.0000000000000E+00  0.0000000000000E+00
   386  3.8500000000000E+00  0.0000000000000E+00  0.0000000000000E+00
   387  3.8600000000000E+00  0.0000000000000E+00  0.0000000000000E+00
   388  3.8700000000000E+00  0.0000000000000E+00  0.0000000000000E+00
   389  3.8800000000000E+00  0.0000000000000E+00  0.0000000000000E+00
   390  3.8900000000000E+00  0.0000000000000E+00  0.0000000000000E+00
   391  3.9000000000000E+00  0.0000000000000E+00  0.0000000000000E+00
   392  3.9100000000000E+00  0.0000000000000E+00  0.0000000000000E+00
   393  3.9200000000000E+00  0.0000000000000E+00  0.0000000000000E+00
   394  3.9300000000000E+00  0.0000000000000E+00  0.0000000000000E+00
   395  3.9400000000000E+00  0.0000000000000E+00  0.0000000000000E+00
   396  3.9500000000000E+00  0.0000000000000E+00  0.0000000000000E+00
   397  3.9600000000000E+00  0.0000000000000E+00  0.0000000000000E+00
   398  3.9700000000000E+00  0.0000000000000E+00  0.0000000000000E+00
   399  3.9800000000000E+00  0.0000000000000E+00  0.0000000000000E+00
   400  3.9900000000000E+00  0.0000000000000E+00  0.0000000000000E+00
   401  4.0000000000000E+00  0.0000000000000E+00  0.0000000000000E+00
   402  4.0100000000000E+00  0.0000000000000E+00  0.0000000000000E+00
   403  4.0200000000000E+00  0.0000000000000E+00  0.0000000000000E+00
   404  4.0300000000000E+00  0.0000000000000E+00  0.0000000000000E+00
   405  4.0400000000000E+00  0.0000000000000E+00  0.0000000000000E+00
   406  4.0500000000000E+00  0.0000000000000E+00  0.0000000000000E+00
   407  4.0600000000000E+00  0.0000000000000E+00  0.0000000000000E+00
   408  4.0700000000000E+00  0.0000000000000E+00  0.0000000000000E+00
   409  4.0800000000000E+00  0.0000000000000E+00  0.0000000000000E+00
   410  4.0900000000000E+00  0.0000000000000E+00  0.0000000000000E+00
   411  4.1000000000000E+00  0.0000000000000E+00  0.0000000000000E+00
   412  4.1100000000000E+00  0.0000000000000E+00  0.0000000000000E+00
   413  4.1200000000000E+00  0.0000000000000E+00  0.0000000000000E+00
   414  4.1300000000000E+00  0.0000000000000E+00  0.0000000000000E+00
   415  4.1400000000000E+00  0.0000000000000E+00  0.0000000000000E+00
   416  4.1500000000000E+00  0.0000000000000E+00  0.0000000000000E+00
   417  4.1600000000000E+00  0.0000000000000E+00  0.0000000000000E+00
   418  4.1700000000000E+00  0.0000000000000E+00  0.0000000000000E+00
   419  4.1800000000000E+00  0.0000000000000E+00  0.0000000000000E+00
   420  4.1900000000000E+00  0.0000000000000E+00  0.0000000000000E+00
   421  4.2000000000000E+00  0.0000000000000E+00  0.0000000000000E+00
   422  4.2100000000000E+00  0.0000000000000E+00  0.0000000000000E+00
   423  4.2200000000000E+00  0.0000000000000E+00  0.0000000000000E+00