Re   ONCVPSP-2.1.1   r_core=    1.99393 2.06658 1.79096 2.62339
    75.0000   15.0000   150105   zatom,zion,pspd
    8   11   3   4   600   0   pspcod,pspxc,lmax,lloc,mmax,r2well
    5.99000000   0.00000000   0.00000000   rchrg fchrg qchrg
    2   2   2   2   0   nproj
    1   1   extension_switch
       0                         1.2314674717500E+01  2.0302828803000E+00
     1  0.0000000000000E+00  0.0000000000000E+00  0.0000000000000E+00
     2  1.0000000000000E-02 -5.1964446690000E-02  1.0539222747000E-02
     3  2.0000000000000E-02 -1.0388175132000E-01  2.1085032409000E-02
     4  3.0000000000000E-02 -1.5570463674000E-01  3.1643548928000E-02
     5  4.0000000000000E-02 -2.0738555736000E-01  4.2219962534000E-02
     6  5.0000000000000E-02 -2.5887656927000E-01  5.2818079458000E-02
     7  6.0000000000000E-02 -3.1012920551000E-01  6.3439880240000E-02
     8  7.0000000000000E-02 -3.6109435814000E-01  7.4085094701000E-02
     9  8.0000000000000E-02 -4.1172216877000E-01  8.4750797561000E-02
    10  9.0000000000000E-02 -4.6196192911000E-01  9.5431028486000E-02
    11  1.0000000000000E-01 -5.1176199290000E-01  1.0611644026000E-01
    12  1.1000000000000E-01 -5.6106970083000E-01  1.1679397854000E-01
    13  1.2000000000000E-01 -6.0983131953000E-01  1.2744659643000E-01
    14  1.3000000000000E-01 -6.5799199600000E-01  1.3805300694000E-01
    15  1.4000000000000E-01 -7.0549572849000E-01  1.4858747606000E-01
    16  1.5000000000000E-01 -7.5228535487000E-01  1.5901965891000E-01
    17  1.6000000000000E-01 -7.9830255919000E-01  1.6931448128000E-01
    18  1.7000000000000E-01 -8.4348789732000E-01  1.7943206818000E-01
    19  1.8000000000000E-01 -8.8778084209000E-01  1.8932772126000E-01
    20  1.9000000000000E-01 -9.3111984843000E-01  1.9895194598000E-01
    21  2.0000000000000E-01 -9.7344243862000E-01  2.0825052959000E-01
    22  2.1000000000000E-01 -1.0146853081000E+00  2.1716467021000E-01
    23  2.2000000000000E-01 -1.0547844512000E+00  2.2563115730000E-01
    24  2.3000000000000E-01 -1.0936753074000E+00  2.3358260290000E-01
    25  2.4000000000000E-01 -1.1312929264000E+00  2.4094772310000E-01
    26  2.5000000000000E-01 -1.1675721538000E+00  2.4765166952000E-01
    27  2.6000000000000E-01 -1.2024478332000E+00  2.5361640635000E-01
    28  2.7000000000000E-01 -1.2358550275000E+00  2.5876113631000E-01
    29  2.8000000000000E-01 -1.2677292562000E+00  2.6300276767000E-01
    30  2.9000000000000E-01 -1.2980067477000E+00  2.6625642327000E-01
    31  3.0000000000000E-01 -1.3266247058000E+00  2.6843598775000E-01
    32  3.1000000000000E-01 -1.3535215891000E+00  2.6945468903000E-01
    33  3.2000000000000E-01 -1.3786373997000E+00  2.6922570863000E-01
    34  3.3000000000000E-01 -1.4019139867000E+00  2.6766282951000E-01
    35  3.4000000000000E-01 -1.4232953472000E+00  2.6468108749000E-01
    36  3.5000000000000E-01 -1.4427279438000E+00  2.6019746274000E-01
    37  3.6000000000000E-01 -1.4601610151000E+00  2.5413156380000E-01
    38  3.7000000000000E-01 -1.4755469006000E+00  2.4640634679000E-01
    39  3.8000000000000E-01 -1.4888413488000E+00  2.3694880510000E-01
    40  3.9000000000000E-01 -1.5000038323000E+00  2.2569067853000E-01
    41  4.0000000000000E-01 -1.5089978636000E+00  2.1256916688000E-01
    42  4.1000000000000E-01 -1.5157912869000E+00  1.9752759799000E-01
    43  4.2000000000000E-01 -1.5203565723000E+00  1.8051610141000E-01
    44  4.3000000000000E-01 -1.5226710946000E+00  1.6149225277000E-01
    45  4.4000000000000E-01 -1.5227173978000E+00  1.4042168926000E-01
    46  4.5000000000000E-01 -1.5204834432000E+00  1.1727869060000E-01
    47  4.6000000000000E-01 -1.5159628386000E+00  9.2046720205000E-02
    48  4.7000000000000E-01 -1.5091550411000E+00  6.4718908459000E-02
    49  4.8000000000000E-01 -1.5000655566000E+00  3.5298531122000E-02
    50  4.9000000000000E-01 -1.4887060941000E+00  3.7993874751000E-03
    51  5.0000000000000E-01 -1.4750946981000E+00 -2.9753872319000E-02
    52  5.1000000000000E-01 -1.4592558414000E+00 -6.5325505091000E-02
    53  5.2000000000000E-01 -1.4412205460000E+00 -1.0286837080000E-01
    54  5.3000000000000E-01 -1.4210263888000E+00 -1.4232388741000E-01
    55  5.4000000000000E-01 -1.3987175182000E+00 -1.8362196453000E-01
    56  5.5000000000000E-01 -1.3743446793000E+00 -2.2668090947000E-01
    57  5.6000000000000E-01 -1.3479650926000E+00 -2.7140767828000E-01
    58  5.7000000000000E-01 -1.3196424482000E+00 -3.1769784857000E-01
    59  5.8000000000000E-01 -1.2894467073000E+00 -3.6543605000000E-01
    60  5.9000000000000E-01 -1.2574540178000E+00 -4.1449611182000E-01
    61  6.0000000000000E-01 -1.2237464702000E+00 -4.6474159957000E-01
    62  6.1000000000000E-01 -1.1884119099000E+00 -5.1602619794000E-01
    63  6.2000000000000E-01 -1.1515436629000E+00 -5.6819431052000E-01
    64  6.3000000000000E-01 -1.1132402593000E+00 -6.2108165742000E-01
    65  6.4000000000000E-01 -1.0736050911000E+00 -6.7451600875000E-01
    66  6.5000000000000E-01 -1.0327460816000E+00 -7.2831791412000E-01
    67  6.6000000000000E-01 -9.9077532253000E-01 -7.8230149333000E-01
    68  6.7000000000000E-01 -9.4780859530000E-01 -8.3627547013000E-01
    69  6.8000000000000E-01 -9.0396500367000E-01 -8.9004398438000E-01
    70  6.9000000000000E-01 -8.5936651050000E-01 -9.4340759866000E-01
    71  7.0000000000000E-01 -8.1413747601000E-01 -9.9616430357000E-01
    72  7.1000000000000E-01 -7.6840406017000E-01 -1.0481108105000E+00
    73  7.2000000000000E-01 -7.2229381936000E-01 -1.0990434303000E+00
    74  7.3000000000000E-01 -6.7593514888000E-01 -1.1487592739000E+00
    75  7.4000000000000E-01 -6.2945674711000E-01 -1.1970574036000E+00
    76  7.5000000000000E-01 -5.8298708699000E-01 -1.2437399618000E+00
    77  7.6000000000000E-01 -5.3665387070000E-01 -1.2886133300000E+00
    78  7.7000000000000E-01 -4.9058338308000E-01 -1.3314894932000E+00
    79  7.8000000000000E-01 -4.4490007008000E-01 -1.3721869168000E+00
    80  7.9000000000000E-01 -3.9972595471000E-01 -1.4105317587000E+00
    81  8.0000000000000E-01 -3.5518010455000E-01 -1.4463589593000E+00
    82  8.1000000000000E-01 -3.1137811109000E-01 -1.4795132942000E+00
    83  8.2000000000000E-01 -2.6843158413000E-01 -1.5098503804000E+00
    84  8.3000000000000E-01 -2.2644766439000E-01 -1.5372376287000E+00
    85  8.4000000000000E-01 -1.8552855728000E-01 -1.5615551357000E+00
    86  8.5000000000000E-01 -1.4577109099000E-01 -1.5826965062000E+00
    87  8.6000000000000E-01 -1.0726630156000E-01 -1.6005696023000E+00
    88  8.7000000000000E-01 -7.0099047765000E-02 -1.6150972092000E+00
    89  8.8000000000000E-01 -3.4347658392000E-02 -1.6262176148000E+00
    90  8.9000000000000E-01 -8.3614277888000E-05 -1.6338850955000E+00
    91  9.0000000000000E-01  3.2628732535000E-02 -1.6380703038000E+00
    92  9.1000000000000E-01  6.3732400539000E-02 -1.6387605536000E+00
    93  9.2000000000000E-01  9.3177979518000E-02 -1.6359599984000E+00
    94  9.3000000000000E-01  1.2092378875000E-01 -1.6296897007000E+00
    95  9.4000000000000E-01  1.4693592946000E-01 -1.6199874820000E+00
    96  9.5000000000000E-01  1.7118843697000E-01 -1.6069079251000E+00
    97  9.6000000000000E-01  1.9366344268000E-01 -1.5905223203000E+00
    98  9.7000000000000E-01  2.1435090525000E-01 -1.5709178497000E+00
    99  9.8000000000000E-01  2.3324863670000E-01 -1.5481972527000E+00
   100  9.9000000000000E-01  2.5036218646000E-01 -1.5224782081000E+00
   101  1.0000000000000E+00  2.6570467944000E-01 -1.4938926061000E+00
   102  1.0100000000000E+00  2.7929658711000E-01 -1.4625856945000E+00
   103  1.0200000000000E+00  2.9116540232000E-01 -1.4287151475000E+00
   104  1.0300000000000E+00  3.0134580249000E-01 -1.3924503571000E+00
   105  1.0400000000000E+00  3.0987876386000E-01 -1.3539707303000E+00
   106  1.0500000000000E+00  3.1681136767000E-01 -1.3134646657000E+00
   107  1.0600000000000E+00  3.2219638637000E-01 -1.2711282459000E+00
   108  1.0700000000000E+00  3.2609182663000E-01 -1.2271642837000E+00
   109  1.0800000000000E+00  3.2856061694000E-01 -1.1817799602000E+00
   110  1.0900000000000E+00  3.2966979868000E-01 -1.1351856135000E+00
   111  1.1000000000000E+00  3.2949006626000E-01 -1.0875932391000E+00
   112  1.1100000000000E+00  3.2809533255000E-01 -1.0392154358000E+00
   113  1.1200000000000E+00  3.2556209237000E-01 -9.9026305117000E-01
   114  1.1300000000000E+00  3.2196840254000E-01 -9.4094202368000E-01
   115  1.1400000000000E+00  3.1739360825000E-01 -8.9145358883000E-01
   116  1.1500000000000E+00  3.1191799926000E-01 -8.4199335567000E-01
   117  1.1600000000000E+00  3.0562158079000E-01 -7.9274707524000E-01
   118  1.1700000000000E+00  2.9858296468000E-01 -7.4388771145000E-01
   119  1.1800000000000E+00  2.9087955167000E-01 -6.9557685450000E-01
   120  1.1900000000000E+00  2.8258779196000E-01 -6.4796572399000E-01
   121  1.2000000000000E+00  2.7377897123000E-01 -6.0118137050000E-01
   122  1.2100000000000E+00  2.6452257286000E-01 -5.5534180231000E-01
   123  1.2200000000000E+00  2.5488641242000E-01 -5.1055635494000E-01
   124  1.2300000000000E+00  2.4493545342000E-01 -4.6692629102000E-01
   125  1.2400000000000E+00  2.3473203632000E-01 -4.2454511731000E-01
   126  1.2500000000000E+00  2.2433722847000E-01 -3.8350115575000E-01
   127  1.2600000000000E+00  2.1380910478000E-01 -3.4387413987000E-01
   128  1.2700000000000E+00  2.0320202466000E-01 -3.0573384137000E-01
   129  1.2800000000000E+00  1.9256903715000E-01 -2.6914482396000E-01
   130  1.2900000000000E+00  1.8195968325000E-01 -2.3416215385000E-01
   131  1.3000000000000E+00  1.7141944370000E-01 -2.0083052381000E-01
   132  1.3100000000000E+00  1.6099261624000E-01 -1.6918979304000E-01
   133  1.3200000000000E+00  1.5071897557000E-01 -1.3926870212000E-01
   134  1.3300000000000E+00  1.4063476466000E-01 -1.1108707217000E-01
   135  1.3400000000000E+00  1.3077521577000E-01 -8.4660325388000E-02
   136  1.3500000000000E+00  1.2116960859000E-01 -5.9990843869000E-02
   137  1.3600000000000E+00  1.1184540530000E-01 -3.7075639081000E-02
   138  1.3700000000000E+00  1.0282782856000E-01 -1.5905368824000E-02
   139  1.3800000000000E+00  9.4136525681000E-02  3.5405533696000E-03
   140  1.3900000000000E+00  8.5790663309000E-02  2.1285737724000E-02
   141  1.4000000000000E+00  7.7804789099000E-02  3.7363109818000E-02
   142  1.4100000000000E+00  7.0190685913000E-02  5.1811395824000E-02
   143  1.4200000000000E+00  6.2958904461000E-02  6.4673535140000E-02
   144  1.4300000000000E+00  5.6114711932000E-02  7.6000788122000E-02
   145  1.4400000000000E+00  4.9663321958000E-02  8.5846670452000E-02
   146  1.4500000000000E+00  4.3605776968000E-02  9.4271032947000E-02
   147  1.4600000000000E+00  3.7941519642000E-02  1.0133671659000E-01
   148  1.4700000000000E+00  3.2668182163000E-02  1.0711044745000E-01
   149  1.4800000000000E+00  2.7780193673000E-02  1.1166162435000E-01
   150  1.4900000000000E+00  2.3271884872000E-02  1.1506271632000E-01
   151  1.5000000000000E+00  1.9133946334000E-02  1.1738707449000E-01
   152  1.5100000000000E+00  1.5357088556000E-02  1.1871062008000E-01
   153  1.5200000000000E+00  1.1929628679000E-02  1.1910925445000E-01
   154  1.5300000000000E+00  8.8392143158000E-03  1.1865963927000E-01
   155  1.5400000000000E+00  6.0721658691000E-03  1.1743892840000E-01
   156  1.5500000000000E+00  3.6139705703000E-03  1.1552197388000E-01
   157  1.5600000000000E+00  1.4493114046000E-03  1.1298586661000E-01
   158  1.5700000000000E+00 -4.3762966841000E-04  1.0990146597000E-01
   159  1.5800000000000E+00 -2.0634229382000E-03  1.0634440829000E-01
   160  1.5900000000000E+00 -3.4444492650000E-03  1.0238002011000E-01
   161  1.6000000000000E+00 -4.5980538975000E-03  9.8080410002000E-02
   162  1.6100000000000E+00 -5.5406565181000E-03  9.3505039440000E-02
   163  1.6200000000000E+00 -6.2897465138000E-03  8.8719925799000E-02
   164  1.6300000000000E+00 -6.8614463069000E-03  8.3778662785000E-02
   165  1.6400000000000E+00 -7.2728515266000E-03  7.8739841462000E-02
   166  1.6500000000000E+00 -7.5394153047000E-03  7.3650304024000E-02
   167  1.6600000000000E+00 -7.6774293205000E-03  6.8560626004000E-02
   168  1.6700000000000E+00 -7.7013318982000E-03  6.3510173152000E-02
   169  1.6800000000000E+00 -7.6263100430000E-03  5.8541292219000E-02
   170  1.6900000000000E+00 -7.4654780790000E-03  5.3685355398000E-02
   171  1.7000000000000E+00 -7.2327197267000E-03  4.8976585710000E-02
   172  1.7100000000000E+00 -6.9395644643000E-03  4.4438101008000E-02
   173  1.7200000000000E+00 -6.5984826384000E-03  4.0096351486000E-02
   174  1.7300000000000E+00 -6.2192191969000E-03  3.5966240685000E-02
   175  1.7400000000000E+00 -5.8127911575000E-03  3.2066960217000E-02
   176  1.7500000000000E+00 -5.3870329518000E-03  2.8405576617000E-02
   177  1.7600000000000E+00 -4.9515167834000E-03  2.4994614701000E-02
   178  1.7700000000000E+00 -4.5121252496000E-03  2.1834040384000E-02
   179  1.7800000000000E+00 -4.0770198649000E-03  1.8930302440000E-02
   180  1.7900000000000E+00 -3.6503147430000E-03  1.6277685235000E-02
   181  1.8000000000000E+00 -3.2384017515000E-03  1.3876114118000E-02
   182  1.8100000000000E+00 -2.8442051732000E-03  1.1716517207000E-02
   183  1.8200000000000E+00 -2.4721316802000E-03  9.7926115259000E-03
   184  1.8300000000000E+00 -2.1242242116000E-03  8.0931323711000E-03
   185  1.8400000000000E+00 -1.8029721690000E-03  6.6069032852000E-03
   186  1.8500000000000E+00 -1.5096807088000E-03  5.3209890281000E-03
   187  1.8600000000000E+00 -1.2451212941000E-03  4.2210738274000E-03
   188  1.8700000000000E+00 -1.0099466571000E-03  3.2927835191000E-03
   189  1.8800000000000E+00 -8.0348821150000E-04  2.5206112124000E-03
   190  1.8900000000000E+00 -6.2577300343000E-04  1.8887734696000E-03
   191  1.9000000000000E+00 -4.7507830577000E-04  1.3823498465000E-03
   192  1.9100000000000E+00 -3.5061671829000E-04  9.8459388217000E-04
   193  1.9200000000000E+00 -2.5015758023000E-04  6.8183438516000E-04
   194  1.9300000000000E+00 -1.7190370303000E-04  4.5826094832000E-04
   195  1.9400000000000E+00 -1.1345000053000E-04  3.0067258471000E-04
   196  1.9500000000000E+00 -7.2161486647000E-05  1.9610228058000E-04
   197  1.9600000000000E+00 -4.5408813904000E-05  1.3130463886000E-04
   198  1.9700000000000E+00 -2.9974400210000E-05  9.7325127136000E-05
   199  1.9800000000000E+00 -2.3520527075000E-05  8.4212536071000E-05
   200  1.9900000000000E+00 -2.1182183935000E-05  7.8977558856000E-05
   201  2.0000000000000E+00 -1.5116890006000E-05  5.7239160315000E-05
   202  2.0100000000000E+00 -6.0603503793000E-06  2.3343422130000E-05
   203  2.0200000000000E+00  5.4489611043000E-07 -2.0341790233000E-06
   204  2.0300000000000E+00  1.3342206418000E-06 -4.9808460552000E-06
   205  2.0400000000000E+00  3.0520068586000E-07 -1.1393600013000E-06
   206  2.0500000000000E+00  0.0000000000000E+00  0.0000000000000E+00
   207  2.0600000000000E+00  0.0000000000000E+00  0.0000000000000E+00
   208  2.0700000000000E+00  0.0000000000000E+00  0.0000000000000E+00
   209  2.0800000000000E+00  0.0000000000000E+00  0.0000000000000E+00
   210  2.0900000000000E+00  0.0000000000000E+00  0.0000000000000E+00
   211  2.1000000000000E+00  0.0000000000000E+00  0.0000000000000E+00
   212  2.1100000000000E+00  0.0000000000000E+00  0.0000000000000E+00
   213  2.1200000000000E+00  0.0000000000000E+00  0.0000000000000E+00
   214  2.1300000000000E+00  0.0000000000000E+00  0.0000000000000E+00
   215  2.1400000000000E+00  0.0000000000000E+00  0.0000000000000E+00
   216  2.1500000000000E+00  0.0000000000000E+00  0.0000000000000E+00
   217  2.1600000000000E+00  0.0000000000000E+00  0.0000000000000E+00
   218  2.1700000000000E+00  0.0000000000000E+00  0.0000000000000E+00
   219  2.1800000000000E+00  0.0000000000000E+00  0.0000000000000E+00
   220  2.1900000000000E+00  0.0000000000000E+00  0.0000000000000E+00
   221  2.2000000000000E+00  0.0000000000000E+00  0.0000000000000E+00
   222  2.2100000000000E+00  0.0000000000000E+00  0.0000000000000E+00
   223  2.2200000000000E+00  0.0000000000000E+00  0.0000000000000E+00
   224  2.2300000000000E+00  0.0000000000000E+00  0.0000000000000E+00
   225  2.2400000000000E+00  0.0000000000000E+00  0.0000000000000E+00
   226  2.2500000000000E+00  0.0000000000000E+00  0.0000000000000E+00
   227  2.2600000000000E+00  0.0000000000000E+00  0.0000000000000E+00
   228  2.2700000000000E+00  0.0000000000000E+00  0.0000000000000E+00
   229  2.2800000000000E+00  0.0000000000000E+00  0.0000000000000E+00
   230  2.2900000000000E+00  0.0000000000000E+00  0.0000000000000E+00
   231  2.3000000000000E+00  0.0000000000000E+00  0.0000000000000E+00
   232  2.3100000000000E+00  0.0000000000000E+00  0.0000000000000E+00
   233  2.3200000000000E+00  0.0000000000000E+00  0.0000000000000E+00
   234  2.3300000000000E+00  0.0000000000000E+00  0.0000000000000E+00
   235  2.3400000000000E+00  0.0000000000000E+00  0.0000000000000E+00
   236  2.3500000000000E+00  0.0000000000000E+00  0.0000000000000E+00
   237  2.3600000000000E+00  0.0000000000000E+00  0.0000000000000E+00
   238  2.3700000000000E+00  0.0000000000000E+00  0.0000000000000E+00
   239  2.3800000000000E+00  0.0000000000000E+00  0.0000000000000E+00
   240  2.3900000000000E+00  0.0000000000000E+00  0.0000000000000E+00
   241  2.4000000000000E+00  0.0000000000000E+00  0.0000000000000E+00
   242  2.4100000000000E+00  0.0000000000000E+00  0.0000000000000E+00
   243  2.4200000000000E+00  0.0000000000000E+00  0.0000000000000E+00
   244  2.4300000000000E+00  0.0000000000000E+00  0.0000000000000E+00
   245  2.4400000000000E+00  0.0000000000000E+00  0.0000000000000E+00
   246  2.4500000000000E+00  0.0000000000000E+00  0.0000000000000E+00
   247  2.4600000000000E+00  0.0000000000000E+00  0.0000000000000E+00
   248  2.4700000000000E+00  0.0000000000000E+00  0.0000000000000E+00
   249  2.4800000000000E+00  0.0000000000000E+00  0.0000000000000E+00
   250  2.4900000000000E+00  0.0000000000000E+00  0.0000000000000E+00
   251  2.5000000000000E+00  0.0000000000000E+00  0.0000000000000E+00
   252  2.5100000000000E+00  0.0000000000000E+00  0.0000000000000E+00
   253  2.5200000000000E+00  0.0000000000000E+00  0.0000000000000E+00
   254  2.5300000000000E+00  0.0000000000000E+00  0.0000000000000E+00
   255  2.5400000000000E+00  0.0000000000000E+00  0.0000000000000E+00
   256  2.5500000000000E+00  0.0000000000000E+00  0.0000000000000E+00
   257  2.5600000000000E+00  0.0000000000000E+00  0.0000000000000E+00
   258  2.5700000000000E+00  0.0000000000000E+00  0.0000000000000E+00
   259  2.5800000000000E+00  0.0000000000000E+00  0.0000000000000E+00
   260  2.5900000000000E+00  0.0000000000000E+00  0.0000000000000E+00
   261  2.6000000000000E+00  0.0000000000000E+00  0.0000000000000E+00
   262  2.6100000000000E+00  0.0000000000000E+00  0.0000000000000E+00
   263  2.6200000000000E+00  0.0000000000000E+00  0.0000000000000E+00
   264  2.6300000000000E+00  0.0000000000000E+00  0.0000000000000E+00
   265  2.6400000000000E+00  0.0000000000000E+00  0.0000000000000E+00
   266  2.6500000000000E+00  0.0000000000000E+00  0.0000000000000E+00
   267  2.6600000000000E+00  0.0000000000000E+00  0.0000000000000E+00
   268  2.6700000000000E+00  0.0000000000000E+00  0.0000000000000E+00
   269  2.6800000000000E+00  0.0000000000000E+00  0.0000000000000E+00
   270  2.6900000000000E+00  0.0000000000000E+00  0.0000000000000E+00
   271  2.7000000000000E+00  0.0000000000000E+00  0.0000000000000E+00
   272  2.7100000000000E+00  0.0000000000000E+00  0.0000000000000E+00
   273  2.7200000000000E+00  0.0000000000000E+00  0.0000000000000E+00
   274  2.7300000000000E+00  0.0000000000000E+00  0.0000000000000E+00
   275  2.7400000000000E+00  0.0000000000000E+00  0.0000000000000E+00
   276  2.7500000000000E+00  0.0000000000000E+00  0.0000000000000E+00
   277  2.7600000000000E+00  0.0000000000000E+00  0.0000000000000E+00
   278  2.7700000000000E+00  0.0000000000000E+00  0.0000000000000E+00
   279  2.7800000000000E+00  0.0000000000000E+00  0.0000000000000E+00
   280  2.7900000000000E+00  0.0000000000000E+00  0.0000000000000E+00
   281  2.8000000000000E+00  0.0000000000000E+00  0.0000000000000E+00
   282  2.8100000000000E+00  0.0000000000000E+00  0.0000000000000E+00
   283  2.8200000000000E+00  0.0000000000000E+00  0.0000000000000E+00
   284  2.8300000000000E+00  0.0000000000000E+00  0.0000000000000E+00
   285  2.8400000000000E+00  0.0000000000000E+00  0.0000000000000E+00
   286  2.8500000000000E+00  0.0000000000000E+00  0.0000000000000E+00
   287  2.8600000000000E+00  0.0000000000000E+00  0.0000000000000E+00
   288  2.8700000000000E+00  0.0000000000000E+00  0.0000000000000E+00
   289  2.8800000000000E+00  0.0000000000000E+00  0.0000000000000E+00
   290  2.8900000000000E+00  0.0000000000000E+00  0.0000000000000E+00
   291  2.9000000000000E+00  0.0000000000000E+00  0.0000000000000E+00
   292  2.9100000000000E+00  0.0000000000000E+00  0.0000000000000E+00
   293  2.9200000000000E+00  0.0000000000000E+00  0.0000000000000E+00
   294  2.9300000000000E+00  0.0000000000000E+00  0.0000000000000E+00
   295  2.9400000000000E+00  0.0000000000000E+00  0.0000000000000E+00
   296  2.9500000000000E+00  0.0000000000000E+00  0.0000000000000E+00
   297  2.9600000000000E+00  0.0000000000000E+00  0.0000000000000E+00
   298  2.9700000000000E+00  0.0000000000000E+00  0.0000000000000E+00
   299  2.9800000000000E+00  0.0000000000000E+00  0.0000000000000E+00
   300  2.9900000000000E+00  0.0000000000000E+00  0.0000000000000E+00
   301  3.0000000000000E+00  0.0000000000000E+00  0.0000000000000E+00
   302  3.0100000000000E+00  0.0000000000000E+00  0.0000000000000E+00
   303  3.0200000000000E+00  0.0000000000000E+00  0.0000000000000E+00
   304  3.0300000000000E+00  0.0000000000000E+00  0.0000000000000E+00
   305  3.0400000000000E+00  0.0000000000000E+00  0.0000000000000E+00
   306  3.0500000000000E+00  0.0000000000000E+00  0.0000000000000E+00
   307  3.0600000000000E+00  0.0000000000000E+00  0.0000000000000E+00
   308  3.0700000000000E+00  0.0000000000000E+00  0.0000000000000E+00
   309  3.0800000000000E+00  0.0000000000000E+00  0.0000000000000E+00
   310  3.0900000000000E+00  0.0000000000000E+00  0.0000000000000E+00
   311  3.1000000000000E+00  0.0000000000000E+00  0.0000000000000E+00
   312  3.1100000000000E+00  0.0000000000000E+00  0.0000000000000E+00
   313  3.1200000000000E+00  0.0000000000000E+00  0.0000000000000E+00
   314  3.1300000000000E+00  0.0000000000000E+00  0.0000000000000E+00
   315  3.1400000000000E+00  0.0000000000000E+00  0.0000000000000E+00
   316  3.1500000000000E+00  0.0000000000000E+00  0.0000000000000E+00
   317  3.1600000000000E+00  0.0000000000000E+00  0.0000000000000E+00
   318  3.1700000000000E+00  0.0000000000000E+00  0.0000000000000E+00
   319  3.1800000000000E+00  0.0000000000000E+00  0.0000000000000E+00
   320  3.1900000000000E+00  0.0000000000000E+00  0.0000000000000E+00
   321  3.2000000000000E+00  0.0000000000000E+00  0.0000000000000E+00
   322  3.2100000000000E+00  0.0000000000000E+00  0.0000000000000E+00
   323  3.2200000000000E+00  0.0000000000000E+00  0.0000000000000E+00
   324  3.2300000000000E+00  0.0000000000000E+00  0.0000000000000E+00
   325  3.2400000000000E+00  0.0000000000000E+00  0.0000000000000E+00
   326  3.2500000000000E+00  0.0000000000000E+00  0.0000000000000E+00
   327  3.2600000000000E+00  0.0000000000000E+00  0.0000000000000E+00
   328  3.2700000000000E+00  0.0000000000000E+00  0.0000000000000E+00
   329  3.2800000000000E+00  0.0000000000000E+00  0.0000000000000E+00
   330  3.2900000000000E+00  0.0000000000000E+00  0.0000000000000E+00
   331  3.3000000000000E+00  0.0000000000000E+00  0.0000000000000E+00
   332  3.3100000000000E+00  0.0000000000000E+00  0.0000000000000E+00
   333  3.3200000000000E+00  0.0000000000000E+00  0.0000000000000E+00
   334  3.3300000000000E+00  0.0000000000000E+00  0.0000000000000E+00
   335  3.3400000000000E+00  0.0000000000000E+00  0.0000000000000E+00
   336  3.3500000000000E+00  0.0000000000000E+00  0.0000000000000E+00
   337  3.3600000000000E+00  0.0000000000000E+00  0.0000000000000E+00
   338  3.3700000000000E+00  0.0000000000000E+00  0.0000000000000E+00
   339  3.3800000000000E+00  0.0000000000000E+00  0.0000000000000E+00
   340  3.3900000000000E+00  0.0000000000000E+00  0.0000000000000E+00
   341  3.4000000000000E+00  0.0000000000000E+00  0.0000000000000E+00
   342  3.4100000000000E+00  0.0000000000000E+00  0.0000000000000E+00
   343  3.4200000000000E+00  0.0000000000000E+00  0.0000000000000E+00
   344  3.4300000000000E+00  0.0000000000000E+00  0.0000000000000E+00
   345  3.4400000000000E+00  0.0000000000000E+00  0.0000000000000E+00
   346  3.4500000000000E+00  0.0000000000000E+00  0.0000000000000E+00
   347  3.4600000000000E+00  0.0000000000000E+00  0.0000000000000E+00
   348  3.4700000000000E+00  0.0000000000000E+00  0.0000000000000E+00
   349  3.4800000000000E+00  0.0000000000000E+00  0.0000000000000E+00
   350  3.4900000000000E+00  0.0000000000000E+00  0.0000000000000E+00
   351  3.5000000000000E+00  0.0000000000000E+00  0.0000000000000E+00
   352  3.5100000000000E+00  0.0000000000000E+00  0.0000000000000E+00
   353  3.5200000000000E+00  0.0000000000000E+00  0.0000000000000E+00
   354  3.5300000000000E+00  0.0000000000000E+00  0.0000000000000E+00
   355  3.5400000000000E+00  0.0000000000000E+00  0.0000000000000E+00
   356  3.5500000000000E+00  0.0000000000000E+00  0.0000000000000E+00
   357  3.5600000000000E+00  0.0000000000000E+00  0.0000000000000E+00
   358  3.5700000000000E+00  0.0000000000000E+00  0.0000000000000E+00
   359  3.5800000000000E+00  0.0000000000000E+00  0.0000000000000E+00
   360  3.5900000000000E+00  0.0000000000000E+00  0.0000000000000E+00
   361  3.6000000000000E+00  0.0000000000000E+00  0.0000000000000E+00
   362  3.6100000000000E+00  0.0000000000000E+00  0.0000000000000E+00
   363  3.6200000000000E+00  0.0000000000000E+00  0.0000000000000E+00
   364  3.6300000000000E+00  0.0000000000000E+00  0.0000000000000E+00
   365  3.6400000000000E+00  0.0000000000000E+00  0.0000000000000E+00
   366  3.6500000000000E+00  0.0000000000000E+00  0.0000000000000E+00
   367  3.6600000000000E+00  0.0000000000000E+00  0.0000000000000E+00
   368  3.6700000000000E+00  0.0000000000000E+00  0.0000000000000E+00
   369  3.6800000000000E+00  0.0000000000000E+00  0.0000000000000E+00
   370  3.6900000000000E+00  0.0000000000000E+00  0.0000000000000E+00
   371  3.7000000000000E+00  0.0000000000000E+00  0.0000000000000E+00
   372  3.7100000000000E+00  0.0000000000000E+00  0.0000000000000E+00
   373  3.7200000000000E+00  0.0000000000000E+00  0.0000000000000E+00
   374  3.7300000000000E+00  0.0000000000000E+00  0.0000000000000E+00
   375  3.7400000000000E+00  0.0000000000000E+00  0.0000000000000E+00
   376  3.7500000000000E+00  0.0000000000000E+00  0.0000000000000E+00
   377  3.7600000000000E+00  0.0000000000000E+00  0.0000000000000E+00
   378  3.7700000000000E+00  0.0000000000000E+00  0.0000000000000E+00
   379  3.7800000000000E+00  0.0000000000000E+00  0.0000000000000E+00
   380  3.7900000000000E+00  0.0000000000000E+00  0.0000000000000E+00
   381  3.8000000000000E+00  0.0000000000000E+00  0.0000000000000E+00
   382  3.8100000000000E+00  0.0000000000000E+00  0.0000000000000E+00
   383  3.8200000000000E+00  0.0000000000000E+00  0.0000000000000E+00
   384  3.8300000000000E+00  0.0000000000000E+00  0.0000000000000E+00
   385  3.8400000000000E+00  0.0000000000000E+00  0.0000000000000E+00
   386  3.8500000000000E+00  0.0000000000000E+00  0.0000000000000E+00
   387  3.8600000000000E+00  0.0000000000000E+00  0.0000000000000E+00
   388  3.8700000000000E+00  0.0000000000000E+00  0.0000000000000E+00
   389  3.8800000000000E+00  0.0000000000000E+00  0.0000000000000E+00
   390  3.8900000000000E+00  0.0000000000000E+00  0.0000000000000E+00
   391  3.9000000000000E+00  0.0000000000000E+00  0.0000000000000E+00
   392  3.9100000000000E+00  0.0000000000000E+00  0.0000000000000E+00
   393  3.9200000000000E+00  0.0000000000000E+00  0.0000000000000E+00
   394  3.9300000000000E+00  0.0000000000000E+00  0.0000000000000E+00
   395  3.9400000000000E+00  0.0000000000000E+00  0.0000000000000E+00
   396  3.9500000000000E+00  0.0000000000000E+00  0.0000000000000E+00
   397  3.9600000000000E+00  0.0000000000000E+00  0.0000000000000E+00
   398  3.9700000000000E+00  0.0000000000000E+00  0.0000000000000E+00
   399  3.9800000000000E+00  0.0000000000000E+00  0.0000000000000E+00
   400  3.9900000000000E+00  0.0000000000000E+00  0.0000000000000E+00
   401  4.0000000000000E+00  0.0000000000000E+00  0.0000000000000E+00
   402  4.0100000000000E+00  0.0000000000000E+00  0.0000000000000E+00
   403  4.0200000000000E+00  0.0000000000000E+00  0.0000000000000E+00
   404  4.0300000000000E+00  0.0000000000000E+00  0.0000000000000E+00
   405  4.0400000000000E+00  0.0000000000000E+00  0.0000000000000E+00
   406  4.0500000000000E+00  0.0000000000000E+00  0.0000000000000E+00
   407  4.0600000000000E+00  0.0000000000000E+00  0.0000000000000E+00
   408  4.0700000000000E+00  0.0000000000000E+00  0.0000000000000E+00
   409  4.0800000000000E+00  0.0000000000000E+00  0.0000000000000E+00
   410  4.0900000000000E+00  0.0000000000000E+00  0.0000000000000E+00
   411  4.1000000000000E+00  0.0000000000000E+00  0.0000000000000E+00
   412  4.1100000000000E+00  0.0000000000000E+00  0.0000000000000E+00
   413  4.1200000000000E+00  0.0000000000000E+00  0.0000000000000E+00
   414  4.1300000000000E+00  0.0000000000000E+00  0.0000000000000E+00
   415  4.1400000000000E+00  0.0000000000000E+00  0.0000000000000E+00
   416  4.1500000000000E+00  0.0000000000000E+00  0.0000000000000E+00
   417  4.1600000000000E+00  0.0000000000000E+00  0.0000000000000E+00
   418  4.1700000000000E+00  0.0000000000000E+00  0.0000000000000E+00
   419  4.1800000000000E+00  0.0000000000000E+00  0.0000000000000E+00
   420  4.1900000000000E+00  0.0000000000000E+00  0.0000000000000E+00
   421  4.2000000000000E+00  0.0000000000000E+00  0.0000000000000E+00
   422  4.2100000000000E+00  0.0000000000000E+00  0.0000000000000E+00
   423  4.2200000000000E+00  0.0000000000000E+00  0.0000000000000E+00