Os   ONCVPSP-2.1.1   r_core=    1.74644 1.85377 1.49557 2.58887
    76.0000   16.0000   150105   zatom,zion,pspd
    8   11   3   4   600   0   pspcod,pspxc,lmax,lloc,mmax,r2well
    5.99000000   0.00000000   0.00000000   rchrg fchrg qchrg
    2   2   2   2   0   nproj
    1   1   extension_switch
       0                         1.4513850858500E+01  2.1122997119500E+00
     1  0.0000000000000E+00  0.0000000000000E+00  0.0000000000000E+00
     2  1.0000000000000E-02 -5.2234728579000E-02  8.4495524337000E-03
     3  2.0000000000000E-02 -1.0444653659000E-01  1.6955045462000E-02
     4  3.0000000000000E-02 -1.5661203549000E-01  2.5571250028000E-02
     5  4.0000000000000E-02 -2.0870690580000E-01  3.4350609370000E-02
     6  5.0000000000000E-02 -2.6070544403000E-01  4.3342104105000E-02
     7  6.0000000000000E-02 -3.1258012439000E-01  5.2590151756000E-02
     8  7.0000000000000E-02 -3.6430118003000E-01  6.2133551802000E-02
     9  8.0000000000000E-02 -4.1583620836000E-01  7.2004486957000E-02
    10  9.0000000000000E-02 -4.6714980496000E-01  8.2227590926000E-02
    11  1.0000000000000E-01 -5.1820323009000E-01  9.2819092382000E-02
    12  1.1000000000000E-01 -5.6895411181000E-01  1.0378604429000E-01
    13  1.2000000000000E-01 -6.1935618937000E-01  1.1512564698000E-01
    14  1.3000000000000E-01 -6.6935910001000E-01  1.2682467272000E-01
    15  1.4000000000000E-01 -7.1890821225000E-01  1.3885899864000E-01
    16  1.5000000000000E-01 -7.6794450823000E-01  1.5119325381000E-01
    17  1.6000000000000E-01 -8.1640451711000E-01  1.6378058586000E-01
    18  1.7000000000000E-01 -8.6422030147000E-01  1.7656255072000E-01
    19  1.8000000000000E-01 -9.1131949786000E-01  1.8946912898000E-01
    20  1.9000000000000E-01 -9.5762541245000E-01  2.0241887026000E-01
    21  2.0000000000000E-01 -1.0030571719000E+00  2.1531916685000E-01
    22  2.1000000000000E-01 -1.0475299301000E+00  2.2806665614000E-01
    23  2.2000000000000E-01 -1.0909551288000E+00  2.4054775032000E-01
    24  2.3000000000000E-01 -1.1332408129000E+00  2.5263929098000E-01
    25  2.4000000000000E-01 -1.1742919966000E+00  2.6420932367000E-01
    26  2.5000000000000E-01 -1.2140110820000E+00  2.7511799212000E-01
    27  2.6000000000000E-01 -1.2522983217000E+00  2.8521853550000E-01
    28  2.7000000000000E-01 -1.2890523310000E+00  2.9435839916000E-01
    29  2.8000000000000E-01 -1.3241706368000E+00  3.0238043033000E-01
    30  2.9000000000000E-01 -1.3575502673000E+00  3.0912416578000E-01
    31  3.0000000000000E-01 -1.3890883742000E+00  3.1442719447000E-01
    32  3.1000000000000E-01 -1.4186828842000E+00  3.1812658543000E-01
    33  3.2000000000000E-01 -1.4462331714000E+00  3.2006036139000E-01
    34  3.3000000000000E-01 -1.4716407593000E+00  3.2006903720000E-01
    35  3.4000000000000E-01 -1.4948100231000E+00  3.1799715747000E-01
    36  3.5000000000000E-01 -1.5156489056000E+00  3.1369486048000E-01
    37  3.6000000000000E-01 -1.5340696419000E+00  3.0701945689000E-01
    38  3.7000000000000E-01 -1.5499894752000E+00  2.9783698389000E-01
    39  3.8000000000000E-01 -1.5633313502000E+00  2.8602370453000E-01
    40  3.9000000000000E-01 -1.5740246224000E+00  2.7146763191000E-01
    41  4.0000000000000E-01 -1.5820057214000E+00  2.5406994502000E-01
    42  4.1000000000000E-01 -1.5872187890000E+00  2.3374633979000E-01
    43  4.2000000000000E-01 -1.5896162927000E+00  2.1042831356000E-01
    44  4.3000000000000E-01 -1.5891595973000E+00  1.8406434661000E-01
    45  4.4000000000000E-01 -1.5858194925000E+00  1.5462097443000E-01
    46  4.5000000000000E-01 -1.5795766713000E+00  1.2208373907000E-01
    47  4.6000000000000E-01 -1.5704221550000E+00  8.6458008001000E-02
    48  4.7000000000000E-01 -1.5583576556000E+00  4.7769643806000E-02
    49  4.8000000000000E-01 -1.5433958728000E+00  6.0655166945000E-03
    50  4.9000000000000E-01 -1.5255607700000E+00 -3.8586051352000E-02
    51  5.0000000000000E-01 -1.5048877037000E+00 -8.6095167188000E-02
    52  5.1000000000000E-01 -1.4814235124000E+00 -1.3635034833000E-01
    53  5.2000000000000E-01 -1.4552265808000E+00 -1.8921858676000E-01
    54  5.3000000000000E-01 -1.4263667780000E+00 -2.4454569358000E-01
    55  5.4000000000000E-01 -1.3949252709000E+00 -3.0215689669000E-01
    56  5.5000000000000E-01 -1.3609944277000E+00 -3.6185733192000E-01
    57  5.6000000000000E-01 -1.3246774225000E+00 -4.2343308009000E-01
    58  5.7000000000000E-01 -1.2860879653000E+00 -4.8665205864000E-01
    59  5.8000000000000E-01 -1.2453498112000E+00 -5.5126527932000E-01
    60  5.9000000000000E-01 -1.2025962947000E+00 -6.1700818518000E-01
    61  6.0000000000000E-01 -1.1579697450000E+00 -6.8360206977000E-01
    62  6.1000000000000E-01 -1.1116208252000E+00 -7.5075589962000E-01
    63  6.2000000000000E-01 -1.0637078779000E+00 -8.1816784113000E-01
    64  6.3000000000000E-01 -1.0143961296000E+00 -8.8552730630000E-01
    65  6.4000000000000E-01 -9.6385685268000E-01 -9.5251699781000E-01
    66  6.5000000000000E-01 -9.1226660628000E-01 -1.0188146881000E+00
    67  6.6000000000000E-01 -8.5980624445000E-01 -1.0840956307000E+00
    68  6.7000000000000E-01 -8.0665994053000E-01 -1.1480348490000E+00
    69  6.8000000000000E-01 -7.5301432637000E-01 -1.2103090867000E+00
    70  6.9000000000000E-01 -6.9905754775000E-01 -1.2705989644000E+00
    71  7.0000000000000E-01 -6.4497805198000E-01 -1.3285917619000E+00
    72  7.1000000000000E-01 -5.9096367621000E-01 -1.3839833900000E+00
    73  7.2000000000000E-01 -5.3720068855000E-01 -1.4364804588000E+00
    74  7.3000000000000E-01 -4.8387274260000E-01 -1.4858025198000E+00
    75  7.4000000000000E-01 -4.3115989422000E-01 -1.5316841150000E+00
    76  7.5000000000000E-01 -3.7923769940000E-01 -1.5738765989000E+00
    77  7.6000000000000E-01 -3.2827594672000E-01 -1.6121507487000E+00
    78  7.7000000000000E-01 -2.7843808754000E-01 -1.6462977238000E+00
    79  7.8000000000000E-01 -2.2988025224000E-01 -1.6761309411000E+00
    80  7.9000000000000E-01 -1.8275042518000E-01 -1.7014875362000E+00
    81  8.0000000000000E-01 -1.3718767345000E-01 -1.7222296571000E+00
    82  8.1000000000000E-01 -9.3321434893000E-02 -1.7382455779000E+00
    83  8.2000000000000E-01 -5.1270870488000E-02 -1.7494506219000E+00
    84  8.3000000000000E-01 -1.1144285846000E-02 -1.7557878869000E+00
    85  8.4000000000000E-01  2.6961374325000E-02 -1.7572287633000E+00
    86  8.5000000000000E-01  6.2960955185000E-02 -1.7537732425000E+00
    87  8.6000000000000E-01  9.6781441299000E-02 -1.7454500088000E+00
    88  8.7000000000000E-01  1.2836222439000E-01 -1.7323163164000E+00
    89  8.8000000000000E-01  1.5765528762000E-01 -1.7144576476000E+00
    90  8.9000000000000E-01  1.8462530525000E-01 -1.6919871570000E+00
    91  9.0000000000000E-01  2.0924965729000E-01 -1.6650449035000E+00
    92  9.1000000000000E-01  2.3151835922000E-01 -1.6337968758000E+00
    93  9.2000000000000E-01  2.5143390770000E-01 -1.5984338178000E+00
    94  9.3000000000000E-01  2.6901104381000E-01 -1.5591698651000E+00
    95  9.4000000000000E-01  2.8427643620000E-01 -1.5162410000000E+00
    96  9.5000000000000E-01  2.9726822802000E-01 -1.4699033197000E+00
    97  9.6000000000000E-01  3.0803567645000E-01 -1.4204313118000E+00
    98  9.7000000000000E-01  3.1663871453000E-01 -1.3681157475000E+00
    99  9.8000000000000E-01  3.2314708975000E-01 -1.3132614258000E+00
   100  9.9000000000000E-01  3.2763980114000E-01 -1.2561849977000E+00
   101  1.0000000000000E+00  3.3020437415000E-01 -1.1972126244000E+00
   102  1.0100000000000E+00  3.3093608727000E-01 -1.1366775687000E+00
   103  1.0200000000000E+00  3.2993718873000E-01 -1.0749181451000E+00
   104  1.0300000000000E+00  3.2731609190000E-01 -1.0122747137000E+00
   105  1.0400000000000E+00  3.2318628253000E-01 -9.4908640415000E-01
   106  1.0500000000000E+00  3.1766547853000E-01 -8.8568962900000E-01
   107  1.0600000000000E+00  3.1087469735000E-01 -8.2241523720000E-01
   108  1.0700000000000E+00  3.0293748237000E-01 -7.5958677286000E-01
   109  1.0800000000000E+00  2.9397891787000E-01 -6.9751758518000E-01
   110  1.0900000000000E+00  2.8412383397000E-01 -6.3650534952000E-01
   111  1.1000000000000E+00  2.7349670565000E-01 -5.7683356294000E-01
   112  1.1100000000000E+00  2.6222048646000E-01 -5.1876820301000E-01
   113  1.1200000000000E+00  2.5041680171000E-01 -4.6255924109000E-01
   114  1.1300000000000E+00  2.3820171532000E-01 -4.0842741855000E-01
   115  1.1400000000000E+00  2.2568763244000E-01 -3.5657228869000E-01
   116  1.1500000000000E+00  2.1298196340000E-01 -3.0716850194000E-01
   117  1.1600000000000E+00  2.0018738160000E-01 -2.6036711543000E-01
   118  1.1700000000000E+00  1.8739640086000E-01 -2.1628056242000E-01
   119  1.1800000000000E+00  1.7469507270000E-01 -1.7499480388000E-01
   120  1.1900000000000E+00  1.6216243615000E-01 -1.3656799930000E-01
   121  1.2000000000000E+00  1.4986650423000E-01 -1.0101953108000E-01
   122  1.2100000000000E+00  1.3786635046000E-01 -6.8341948024000E-02
   123  1.2200000000000E+00  1.2621547286000E-01 -3.8510903566000E-02
   124  1.2300000000000E+00  1.1496143305000E-01 -1.1486461189000E-02
   125  1.2400000000000E+00  1.0414305209000E-01  1.2789654354000E-02
   126  1.2500000000000E+00  9.3794771907000E-02  3.4386891549000E-02
   127  1.2600000000000E+00  8.3946134455000E-02  5.3386907689000E-02
   128  1.2700000000000E+00  7.4617806474000E-02  6.9886443347000E-02
   129  1.2800000000000E+00  6.5826930922000E-02  8.3990301835000E-02
   130  1.2900000000000E+00  5.7586132449000E-02  9.5812942197000E-02
   131  1.3000000000000E+00  4.9900394750000E-02  1.0547804983000E-01
   132  1.3100000000000E+00  4.2772063827000E-02  1.1311480744000E-01
   133  1.3200000000000E+00  3.6198961082000E-02  1.1885901309000E-01
   134  1.3300000000000E+00  3.0173454747000E-02  1.2284927601000E-01
   135  1.3400000000000E+00  2.4685943751000E-02  1.2522829532000E-01
   136  1.3500000000000E+00  1.9722421864000E-02  1.2614005190000E-01
   137  1.3600000000000E+00  1.5265935283000E-02  1.2572693125000E-01
   138  1.3700000000000E+00  1.1297801528000E-02  1.2413518668000E-01
   139  1.3800000000000E+00  7.7958902457000E-03  1.2150317553000E-01
   140  1.3900000000000E+00  4.7370398087000E-03  1.1796961742000E-01
   141  1.4000000000000E+00  2.0961625415000E-03  1.1367046793000E-01
   142  1.4100000000000E+00 -1.5285417166000E-04  1.0873085404000E-01
   143  1.4200000000000E+00 -2.0372492159000E-03  1.0327924001000E-01
   144  1.4300000000000E+00 -3.5845321887000E-03  9.7427955516000E-02
   145  1.4400000000000E+00 -4.8226401954000E-03  9.1288225541000E-02
   146  1.4500000000000E+00 -5.7797762293000E-03  8.4963348269000E-02
   147  1.4600000000000E+00 -6.4830268654000E-03  7.8542782803000E-02
   148  1.4700000000000E+00 -6.9606600656000E-03  7.2119188866000E-02
   149  1.4800000000000E+00 -7.2380536677000E-03  6.5761517131000E-02
   150  1.4900000000000E+00 -7.3418114530000E-03  5.9543758471000E-02
   151  1.5000000000000E+00 -7.2959248130000E-03  5.3521236093000E-02
   152  1.5100000000000E+00 -7.1240111665000E-03  4.7745898506000E-02
   153  1.5200000000000E+00 -6.8484431247000E-03  4.2260404296000E-02
   154  1.5300000000000E+00 -6.4891984425000E-03  3.7095645550000E-02
   155  1.5400000000000E+00 -6.0666642090000E-03  3.2281617527000E-02
   156  1.5500000000000E+00 -5.5968970853000E-03  2.7830651010000E-02
   157  1.5600000000000E+00 -5.0979560049000E-03  2.3760288447000E-02
   158  1.5700000000000E+00 -4.5822473565000E-03  2.0068327783000E-02
   159  1.5800000000000E+00 -4.0643757586000E-03  1.6758179073000E-02
   160  1.5900000000000E+00 -3.5540666172000E-03  1.3818572055000E-02
   161  1.6000000000000E+00 -3.0621698811000E-03  1.1240470937000E-02
   162  1.6100000000000E+00 -2.5957825484000E-03  9.0054287201000E-03
   163  1.6200000000000E+00 -2.1622102167000E-03  7.0952525804000E-03
   164  1.6300000000000E+00 -1.7659728313000E-03  5.4862108894000E-03
   165  1.6400000000000E+00 -1.4111546735000E-03  4.1542399848000E-03
   166  1.6500000000000E+00 -1.0997896646000E-03  3.0723316153000E-03
   167  1.6600000000000E+00 -8.3310746681000E-04  2.2135371826000E-03
   168  1.6700000000000E+00 -6.1078268321000E-04  1.5496347304000E-03
   169  1.6800000000000E+00 -4.3155456383000E-04  1.0532912245000E-03
   170  1.6900000000000E+00 -2.9288887165000E-04  6.9708226440000E-04
   171  1.7000000000000E+00 -1.9136255033000E-04  4.5519404015000E-04
   172  1.7100000000000E+00 -1.2238850023000E-04  3.0281749590000E-04
   173  1.7200000000000E+00 -8.0652923664000E-05  2.1692817456000E-04
   174  1.7300000000000E+00 -6.0716270508000E-05  1.8100301134000E-04
   175  1.7400000000000E+00 -5.4358816663000E-05  1.7062684891000E-04
   176  1.7500000000000E+00 -4.2497053636000E-05  1.3526190537000E-04
   177  1.7600000000000E+00 -1.6759234558000E-05  5.4044365638000E-05
   178  1.7700000000000E+00  1.7832201582000E-06 -5.6394254834000E-06
   179  1.7800000000000E+00  3.0109709204000E-06 -9.5221815769000E-06
   180  1.7900000000000E+00  0.0000000000000E+00  0.0000000000000E+00
   181  1.8000000000000E+00  0.0000000000000E+00  0.0000000000000E+00
   182  1.8100000000000E+00  0.0000000000000E+00  0.0000000000000E+00
   183  1.8200000000000E+00  0.0000000000000E+00  0.0000000000000E+00
   184  1.8300000000000E+00  0.0000000000000E+00  0.0000000000000E+00
   185  1.8400000000000E+00  0.0000000000000E+00  0.0000000000000E+00
   186  1.8500000000000E+00  0.0000000000000E+00  0.0000000000000E+00
   187  1.8600000000000E+00  0.0000000000000E+00  0.0000000000000E+00
   188  1.8700000000000E+00  0.0000000000000E+00  0.0000000000000E+00
   189  1.8800000000000E+00  0.0000000000000E+00  0.0000000000000E+00
   190  1.8900000000000E+00  0.0000000000000E+00  0.0000000000000E+00
   191  1.9000000000000E+00  0.0000000000000E+00  0.0000000000000E+00
   192  1.9100000000000E+00  0.0000000000000E+00  0.0000000000000E+00
   193  1.9200000000000E+00  0.0000000000000E+00  0.0000000000000E+00
   194  1.9300000000000E+00  0.0000000000000E+00  0.0000000000000E+00
   195  1.9400000000000E+00  0.0000000000000E+00  0.0000000000000E+00
   196  1.9500000000000E+00  0.0000000000000E+00  0.0000000000000E+00
   197  1.9600000000000E+00  0.0000000000000E+00  0.0000000000000E+00
   198  1.9700000000000E+00  0.0000000000000E+00  0.0000000000000E+00
   199  1.9800000000000E+00  0.0000000000000E+00  0.0000000000000E+00
   200  1.9900000000000E+00  0.0000000000000E+00  0.0000000000000E+00
   201  2.0000000000000E+00  0.0000000000000E+00  0.0000000000000E+00
   202  2.0100000000000E+00  0.0000000000000E+00  0.0000000000000E+00
   203  2.0200000000000E+00  0.0000000000000E+00  0.0000000000000E+00
   204  2.0300000000000E+00  0.0000000000000E+00  0.0000000000000E+00
   205  2.0400000000000E+00  0.0000000000000E+00  0.0000000000000E+00
   206  2.0500000000000E+00  0.0000000000000E+00  0.0000000000000E+00
   207  2.0600000000000E+00  0.0000000000000E+00  0.0000000000000E+00
   208  2.0700000000000E+00  0.0000000000000E+00  0.0000000000000E+00
   209  2.0800000000000E+00  0.0000000000000E+00  0.0000000000000E+00
   210  2.0900000000000E+00  0.0000000000000E+00  0.0000000000000E+00
   211  2.1000000000000E+00  0.0000000000000E+00  0.0000000000000E+00
   212  2.1100000000000E+00  0.0000000000000E+00  0.0000000000000E+00
   213  2.1200000000000E+00  0.0000000000000E+00  0.0000000000000E+00
   214  2.1300000000000E+00  0.0000000000000E+00  0.0000000000000E+00
   215  2.1400000000000E+00  0.0000000000000E+00  0.0000000000000E+00
   216  2.1500000000000E+00  0.0000000000000E+00  0.0000000000000E+00
   217  2.1600000000000E+00  0.0000000000000E+00  0.0000000000000E+00
   218  2.1700000000000E+00  0.0000000000000E+00  0.0000000000000E+00
   219  2.1800000000000E+00  0.0000000000000E+00  0.0000000000000E+00
   220  2.1900000000000E+00  0.0000000000000E+00  0.0000000000000E+00
   221  2.2000000000000E+00  0.0000000000000E+00  0.0000000000000E+00
   222  2.2100000000000E+00  0.0000000000000E+00  0.0000000000000E+00
   223  2.2200000000000E+00  0.0000000000000E+00  0.0000000000000E+00
   224  2.2300000000000E+00  0.0000000000000E+00  0.0000000000000E+00
   225  2.2400000000000E+00  0.0000000000000E+00  0.0000000000000E+00
   226  2.2500000000000E+00  0.0000000000000E+00  0.0000000000000E+00
   227  2.2600000000000E+00  0.0000000000000E+00  0.0000000000000E+00
   228  2.2700000000000E+00  0.0000000000000E+00  0.0000000000000E+00
   229  2.2800000000000E+00  0.0000000000000E+00  0.0000000000000E+00
   230  2.2900000000000E+00  0.0000000000000E+00  0.0000000000000E+00
   231  2.3000000000000E+00  0.0000000000000E+00  0.0000000000000E+00
   232  2.3100000000000E+00  0.0000000000000E+00  0.0000000000000E+00
   233  2.3200000000000E+00  0.0000000000000E+00  0.0000000000000E+00
   234  2.3300000000000E+00  0.0000000000000E+00  0.0000000000000E+00
   235  2.3400000000000E+00  0.0000000000000E+00  0.0000000000000E+00
   236  2.3500000000000E+00  0.0000000000000E+00  0.0000000000000E+00
   237  2.3600000000000E+00  0.0000000000000E+00  0.0000000000000E+00
   238  2.3700000000000E+00  0.0000000000000E+00  0.0000000000000E+00
   239  2.3800000000000E+00  0.0000000000000E+00  0.0000000000000E+00
   240  2.3900000000000E+00  0.0000000000000E+00  0.0000000000000E+00
   241  2.4000000000000E+00  0.0000000000000E+00  0.0000000000000E+00
   242  2.4100000000000E+00  0.0000000000000E+00  0.0000000000000E+00
   243  2.4200000000000E+00  0.0000000000000E+00  0.0000000000000E+00
   244  2.4300000000000E+00  0.0000000000000E+00  0.0000000000000E+00
   245  2.4400000000000E+00  0.0000000000000E+00  0.0000000000000E+00
   246  2.4500000000000E+00  0.0000000000000E+00  0.0000000000000E+00
   247  2.4600000000000E+00  0.0000000000000E+00  0.0000000000000E+00
   248  2.4700000000000E+00  0.0000000000000E+00  0.0000000000000E+00
   249  2.4800000000000E+00  0.0000000000000E+00  0.0000000000000E+00
   250  2.4900000000000E+00  0.0000000000000E+00  0.0000000000000E+00
   251  2.5000000000000E+00  0.0000000000000E+00  0.0000000000000E+00
   252  2.5100000000000E+00  0.0000000000000E+00  0.0000000000000E+00
   253  2.5200000000000E+00  0.0000000000000E+00  0.0000000000000E+00
   254  2.5300000000000E+00  0.0000000000000E+00  0.0000000000000E+00
   255  2.5400000000000E+00  0.0000000000000E+00  0.0000000000000E+00
   256  2.5500000000000E+00  0.0000000000000E+00  0.0000000000000E+00
   257  2.5600000000000E+00  0.0000000000000E+00  0.0000000000000E+00
   258  2.5700000000000E+00  0.0000000000000E+00  0.0000000000000E+00
   259  2.5800000000000E+00  0.0000000000000E+00  0.0000000000000E+00
   260  2.5900000000000E+00  0.0000000000000E+00  0.0000000000000E+00
   261  2.6000000000000E+00  0.0000000000000E+00  0.0000000000000E+00
   262  2.6100000000000E+00  0.0000000000000E+00  0.0000000000000E+00
   263  2.6200000000000E+00  0.0000000000000E+00  0.0000000000000E+00
   264  2.6300000000000E+00  0.0000000000000E+00  0.0000000000000E+00
   265  2.6400000000000E+00  0.0000000000000E+00  0.0000000000000E+00
   266  2.6500000000000E+00  0.0000000000000E+00  0.0000000000000E+00
   267  2.6600000000000E+00  0.0000000000000E+00  0.0000000000000E+00
   268  2.6700000000000E+00  0.0000000000000E+00  0.0000000000000E+00
   269  2.6800000000000E+00  0.0000000000000E+00  0.0000000000000E+00
   270  2.6900000000000E+00  0.0000000000000E+00  0.0000000000000E+00
   271  2.7000000000000E+00  0.0000000000000E+00  0.0000000000000E+00
   272  2.7100000000000E+00  0.0000000000000E+00  0.0000000000000E+00
   273  2.7200000000000E+00  0.0000000000000E+00  0.0000000000000E+00
   274  2.7300000000000E+00  0.0000000000000E+00  0.0000000000000E+00
   275  2.7400000000000E+00  0.0000000000000E+00  0.0000000000000E+00
   276  2.7500000000000E+00  0.0000000000000E+00  0.0000000000000E+00
   277  2.7600000000000E+00  0.0000000000000E+00  0.0000000000000E+00
   278  2.7700000000000E+00  0.0000000000000E+00  0.0000000000000E+00
   279  2.7800000000000E+00  0.0000000000000E+00  0.0000000000000E+00
   280  2.7900000000000E+00  0.0000000000000E+00  0.0000000000000E+00
   281  2.8000000000000E+00  0.0000000000000E+00  0.0000000000000E+00
   282  2.8100000000000E+00  0.0000000000000E+00  0.0000000000000E+00
   283  2.8200000000000E+00  0.0000000000000E+00  0.0000000000000E+00
   284  2.8300000000000E+00  0.0000000000000E+00  0.0000000000000E+00
   285  2.8400000000000E+00  0.0000000000000E+00  0.0000000000000E+00
   286  2.8500000000000E+00  0.0000000000000E+00  0.0000000000000E+00
   287  2.8600000000000E+00  0.0000000000000E+00  0.0000000000000E+00
   288  2.8700000000000E+00  0.0000000000000E+00  0.0000000000000E+00
   289  2.8800000000000E+00  0.0000000000000E+00  0.0000000000000E+00
   290  2.8900000000000E+00  0.0000000000000E+00  0.0000000000000E+00
   291  2.9000000000000E+00  0.0000000000000E+00  0.0000000000000E+00
   292  2.9100000000000E+00  0.0000000000000E+00  0.0000000000000E+00
   293  2.9200000000000E+00  0.0000000000000E+00  0.0000000000000E+00
   294  2.9300000000000E+00  0.0000000000000E+00  0.0000000000000E+00
   295  2.9400000000000E+00  0.0000000000000E+00  0.0000000000000E+00
   296  2.9500000000000E+00  0.0000000000000E+00  0.0000000000000E+00
   297  2.9600000000000E+00  0.0000000000000E+00  0.0000000000000E+00
   298  2.9700000000000E+00  0.0000000000000E+00  0.0000000000000E+00
   299  2.9800000000000E+00  0.0000000000000E+00  0.0000000000000E+00
   300  2.9900000000000E+00  0.0000000000000E+00  0.0000000000000E+00
   301  3.0000000000000E+00  0.0000000000000E+00  0.0000000000000E+00
   302  3.0100000000000E+00  0.0000000000000E+00  0.0000000000000E+00
   303  3.0200000000000E+00  0.0000000000000E+00  0.0000000000000E+00
   304  3.0300000000000E+00  0.0000000000000E+00  0.0000000000000E+00
   305  3.0400000000000E+00  0.0000000000000E+00  0.0000000000000E+00
   306  3.0500000000000E+00  0.0000000000000E+00  0.0000000000000E+00
   307  3.0600000000000E+00  0.0000000000000E+00  0.0000000000000E+00
   308  3.0700000000000E+00  0.0000000000000E+00  0.0000000000000E+00
   309  3.0800000000000E+00  0.0000000000000E+00  0.0000000000000E+00
   310  3.0900000000000E+00  0.0000000000000E+00  0.0000000000000E+00
   311  3.1000000000000E+00  0.0000000000000E+00  0.0000000000000E+00
   312  3.1100000000000E+00  0.0000000000000E+00  0.0000000000000E+00
   313  3.1200000000000E+00  0.0000000000000E+00  0.0000000000000E+00
   314  3.1300000000000E+00  0.0000000000000E+00  0.0000000000000E+00
   315  3.1400000000000E+00  0.0000000000000E+00  0.0000000000000E+00
   316  3.1500000000000E+00  0.0000000000000E+00  0.0000000000000E+00
   317  3.1600000000000E+00  0.0000000000000E+00  0.0000000000000E+00
   318  3.1700000000000E+00  0.0000000000000E+00  0.0000000000000E+00
   319  3.1800000000000E+00  0.0000000000000E+00  0.0000000000000E+00
   320  3.1900000000000E+00  0.0000000000000E+00  0.0000000000000E+00
   321  3.2000000000000E+00  0.0000000000000E+00  0.0000000000000E+00
   322  3.2100000000000E+00  0.0000000000000E+00  0.0000000000000E+00
   323  3.2200000000000E+00  0.0000000000000E+00  0.0000000000000E+00
   324  3.2300000000000E+00  0.0000000000000E+00  0.0000000000000E+00
   325  3.2400000000000E+00  0.0000000000000E+00  0.0000000000000E+00
   326  3.2500000000000E+00  0.0000000000000E+00  0.0000000000000E+00
   327  3.2600000000000E+00  0.0000000000000E+00  0.0000000000000E+00
   328  3.2700000000000E+00  0.0000000000000E+00  0.0000000000000E+00
   329  3.2800000000000E+00  0.0000000000000E+00  0.0000000000000E+00
   330  3.2900000000000E+00  0.0000000000000E+00  0.0000000000000E+00
   331  3.3000000000000E+00  0.0000000000000E+00  0.0000000000000E+00
   332  3.3100000000000E+00  0.0000000000000E+00  0.0000000000000E+00
   333  3.3200000000000E+00  0.0000000000000E+00  0.0000000000000E+00
   334  3.3300000000000E+00  0.0000000000000E+00  0.0000000000000E+00
   335  3.3400000000000E+00  0.0000000000000E+00  0.0000000000000E+00
   336  3.3500000000000E+00  0.0000000000000E+00  0.0000000000000E+00
   337  3.3600000000000E+00  0.0000000000000E+00  0.0000000000000E+00
   338  3.3700000000000E+00  0.0000000000000E+00  0.0000000000000E+00
   339  3.3800000000000E+00  0.0000000000000E+00  0.0000000000000E+00
   340  3.3900000000000E+00  0.0000000000000E+00  0.0000000000000E+00
   341  3.4000000000000E+00  0.0000000000000E+00  0.0000000000000E+00
   342  3.4100000000000E+00  0.0000000000000E+00  0.0000000000000E+00
   343  3.4200000000000E+00  0.0000000000000E+00  0.0000000000000E+00
   344  3.4300000000000E+00  0.0000000000000E+00  0.0000000000000E+00
   345  3.4400000000000E+00  0.0000000000000E+00  0.0000000000000E+00
   346  3.4500000000000E+00  0.0000000000000E+00  0.0000000000000E+00
   347  3.4600000000000E+00  0.0000000000000E+00  0.0000000000000E+00
   348  3.4700000000000E+00  0.0000000000000E+00  0.0000000000000E+00
   349  3.4800000000000E+00  0.0000000000000E+00  0.0000000000000E+00
   350  3.4900000000000E+00  0.0000000000000E+00  0.0000000000000E+00
   351  3.5000000000000E+00  0.0000000000000E+00  0.0000000000000E+00
   352  3.5100000000000E+00  0.0000000000000E+00  0.0000000000000E+00
   353  3.5200000000000E+00  0.0000000000000E+00  0.0000000000000E+00
   354  3.5300000000000E+00  0.0000000000000E+00  0.0000000000000E+00
   355  3.5400000000000E+00  0.0000000000000E+00  0.0000000000000E+00
   356  3.5500000000000E+00  0.0000000000000E+00  0.0000000000000E+00
   357  3.5600000000000E+00  0.0000000000000E+00  0.0000000000000E+00
   358  3.5700000000000E+00  0.0000000000000E+00  0.0000000000000E+00
   359  3.5800000000000E+00  0.0000000000000E+00  0.0000000000000E+00
   360  3.5900000000000E+00  0.0000000000000E+00  0.0000000000000E+00
   361  3.6000000000000E+00  0.0000000000000E+00  0.0000000000000E+00
   362  3.6100000000000E+00  0.0000000000000E+00  0.0000000000000E+00
   363  3.6200000000000E+00  0.0000000000000E+00  0.0000000000000E+00
   364  3.6300000000000E+00  0.0000000000000E+00  0.0000000000000E+00
   365  3.6400000000000E+00  0.0000000000000E+00  0.0000000000000E+00
   366  3.6500000000000E+00  0.0000000000000E+00  0.0000000000000E+00
   367  3.6600000000000E+00  0.0000000000000E+00  0.0000000000000E+00
   368  3.6700000000000E+00  0.0000000000000E+00  0.0000000000000E+00
   369  3.6800000000000E+00  0.0000000000000E+00  0.0000000000000E+00
   370  3.6900000000000E+00  0.0000000000000E+00  0.0000000000000E+00
   371  3.7000000000000E+00  0.0000000000000E+00  0.0000000000000E+00
   372  3.7100000000000E+00  0.0000000000000E+00  0.0000000000000E+00
   373  3.7200000000000E+00  0.0000000000000E+00  0.0000000000000E+00
   374  3.7300000000000E+00  0.0000000000000E+00  0.0000000000000E+00
   375  3.7400000000000E+00  0.0000000000000E+00  0.0000000000000E+00
   376  3.7500000000000E+00  0.0000000000000E+00  0.0000000000000E+00
   377  3.7600000000000E+00  0.0000000000000E+00  0.0000000000000E+00
   378  3.7700000000000E+00  0.0000000000000E+00  0.0000000000000E+00
   379  3.7800000000000E+00  0.0000000000000E+00  0.0000000000000E+00
   380  3.7900000000000E+00  0.0000000000000E+00  0.0000000000000E+00
   381  3.8000000000000E+00  0.0000000000000E+00  0.0000000000000E+00
   382  3.8100000000000E+00  0.0000000000000E+00  0.0000000000000E+00
   383  3.8200000000000E+00  0.0000000000000E+00  0.0000000000000E+00
   384  3.8300000000000E+00  0.0000000000000E+00  0.0000000000000E+00
   385  3.8400000000000E+00  0.0000000000000E+00  0.0000000000000E+00
   386  3.8500000000000E+00  0.0000000000000E+00  0.0000000000000E+00
   387  3.8600000000000E+00  0.0000000000000E+00  0.0000000000000E+00
   388  3.8700000000000E+00  0.0000000000000E+00  0.0000000000000E+00
   389  3.8800000000000E+00  0.0000000000000E+00  0.0000000000000E+00
   390  3.8900000000000E+00  0.0000000000000E+00  0.0000000000000E+00
   391  3.9000000000000E+00  0.0000000000000E+00  0.0000000000000E+00
   392  3.9100000000000E+00  0.0000000000000E+00  0.0000000000000E+00
   393  3.9200000000000E+00  0.0000000000000E+00  0.0000000000000E+00
   394  3.9300000000000E+00  0.0000000000000E+00  0.0000000000000E+00
   395  3.9400000000000E+00  0.0000000000000E+00  0.0000000000000E+00
   396  3.9500000000000E+00  0.0000000000000E+00  0.0000000000000E+00
   397  3.9600000000000E+00  0.0000000000000E+00  0.0000000000000E+00
   398  3.9700000000000E+00  0.0000000000000E+00  0.0000000000000E+00
   399  3.9800000000000E+00  0.0000000000000E+00  0.0000000000000E+00
   400  3.9900000000000E+00  0.0000000000000E+00  0.0000000000000E+00
   401  4.0000000000000E+00  0.0000000000000E+00  0.0000000000000E+00
   402  4.0100000000000E+00  0.0000000000000E+00  0.0000000000000E+00
   403  4.0200000000000E+00  0.0000000000000E+00  0.0000000000000E+00
   404  4.0300000000000E+00  0.0000000000000E+00  0.0000000000000E+00
   405  4.0400000000000E+00  0.0000000000000E+00  0.0000000000000E+00
   406  4.0500000000000E+00  0.0000000000000E+00  0.0000000000000E+00
   407  4.0600000000000E+00  0.0000000000000E+00  0.0000000000000E+00
   408  4.0700000000000E+00  0.0000000000000E+00  0.0000000000000E+00
   409  4.0800000000000E+00  0.0000000000000E+00  0.0000000000000E+00
   410  4.0900000000000E+00  0.0000000000000E+00  0.0000000000000E+00
   411  4.1000000000000E+00  0.0000000000000E+00  0.0000000000000E+00
   412  4.1100000000000E+00  0.0000000000000E+00  0.0000000000000E+00
   413  4.1200000000000E+00  0.0000000000000E+00  0.0000000000000E+00
   414  4.1300000000000E+00  0.0000000000000E+00  0.0000000000000E+00
   415  4.1400000000000E+00  0.0000000000000E+00  0.0000000000000E+00
   416  4.1500000000000E+00  0.0000000000000E+00  0.0000000000000E+00
   417  4.1600000000000E+00  0.0000000000000E+00  0.0000000000000E+00
   418  4.1700000000000E+00  0.0000000000000E+00  0.0000000000000E+00
   419  4.1800000000000E+00  0.0000000000000E+00  0.0000000000000E+00
   420  4.1900000000000E+00  0.0000000000000E+00  0.0000000000000E+00
   421  4.2000000000000E+00  0.0000000000000E+00  0.0000000000000E+00
   422  4.2100000000000E+00  0.0000000000000E+00  0.0000000000000E+00
   423  4.2200000000000E+00  0.0000000000000E+00  0.0000000000000E+00