Pt   ONCVPSP-2.1.1   r_core=    2.32041 2.32041 2.21230 3.01673
    78.0000   18.0000   150105   zatom,zion,pspd
    8   11   3   4   600   0   pspcod,pspxc,lmax,lloc,mmax,r2well
    5.99000000   0.00000000   0.00000000   rchrg fchrg qchrg
    2   2   2   2   0   nproj
    1   1   extension_switch
       0                         6.6201409370000E+00  1.3380282291500E+00
     1  0.0000000000000E+00  0.0000000000000E+00  0.0000000000000E+00
     2  1.0000000000000E-02 -5.8239987932000E-02  9.0001867612000E-03
     3  2.0000000000000E-02 -1.1638967519000E-01  1.7960184979000E-02
     4  3.0000000000000E-02 -1.7435890368000E-01  2.6839814833000E-02
     5  4.0000000000000E-02 -2.3205780040000E-01  3.5598914560000E-02
     6  5.0000000000000E-02 -2.8939691981000E-01  4.4197351020000E-02
     7  6.0000000000000E-02 -3.4628738606000E-01  5.2595032088000E-02
     8  7.0000000000000E-02 -4.0264103485000E-01  6.0751921455000E-02
     9  8.0000000000000E-02 -4.5837055505000E-01  6.8628056404000E-02
    10  9.0000000000000E-02 -5.1338962981000E-01  7.6183569091000E-02
    11  1.0000000000000E-01 -5.6761307718000E-01  8.3378711844000E-02
    12  1.1000000000000E-01 -6.2095699010000E-01  9.0173886937000E-02
    13  1.2000000000000E-01 -6.7333887562000E-01  9.6529681280000E-02
    14  1.3000000000000E-01 -7.2467779333000E-01  1.0240690640000E-01
    15  1.4000000000000E-01 -7.7489449268000E-01  1.0776664402000E-01
    16  1.5000000000000E-01 -8.2391154925000E-01  1.1257029764000E-01
    17  1.6000000000000E-01 -8.7165349967000E-01  1.1677965009000E-01
    18  1.7000000000000E-01 -9.1804697505000E-01  1.2035692758000E-01
    19  1.8000000000000E-01 -9.6302083268000E-01  1.2326486999000E-01
    20  1.9000000000000E-01 -1.0065062860000E+00  1.2546680775000E-01
    21  2.0000000000000E-01 -1.0484370323000E+00  1.2692674508000E-01
    22  2.1000000000000E-01 -1.0887493782000E+00  1.2760944966000E-01
    23  2.2000000000000E-01 -1.1273823623000E+00  1.2748054839000E-01
    24  2.3000000000000E-01 -1.1642778755000E+00  1.2650662930000E-01
    25  2.4000000000000E-01 -1.1993807774000E+00  1.2465534905000E-01
    26  2.5000000000000E-01 -1.2326390101000E+00  1.2189554583000E-01
    27  2.6000000000000E-01 -1.2640037079000E+00  1.1819735730000E-01
    28  2.7000000000000E-01 -1.2934293027000E+00  1.1353234297000E-01
    29  2.8000000000000E-01 -1.3208736257000E+00  1.0787361039000E-01
    30  2.9000000000000E-01 -1.3462980034000E+00  1.0119594491000E-01
    31  3.0000000000000E-01 -1.3696673499000E+00  9.3475942190000E-02
    32  3.1000000000000E-01 -1.3909502530000E+00  8.4692142695000E-02
    33  3.2000000000000E-01 -1.4101190542000E+00  7.4825167198000E-02
    34  3.3000000000000E-01 -1.4271499234000E+00  6.3857852611000E-02
    35  3.4000000000000E-01 -1.4420229281000E+00  5.1775390393000E-02
    36  3.5000000000000E-01 -1.4547220917000E+00  3.8565456274000E-02
    37  3.6000000000000E-01 -1.4652354518000E+00  2.4218349901000E-02
    38  3.7000000000000E-01 -1.4735551033000E+00  8.7271183806000E-03
    39  3.8000000000000E-01 -1.4796772386000E+00 -7.9123154790000E-03
    40  3.9000000000000E-01 -1.4836021798000E+00 -2.5701029872000E-02
    41  4.0000000000000E-01 -1.4853343994000E+00 -4.4636991900000E-02
    42  4.1000000000000E-01 -1.4848825344000E+00 -6.4714947699000E-02
    43  4.2000000000000E-01 -1.4822593916000E+00 -8.5926321331000E-02
    44  4.3000000000000E-01 -1.4774819431000E+00 -1.0825912227000E-01
    45  4.4000000000000E-01 -1.4705713122000E+00 -1.3169786231000E-01
    46  4.5000000000000E-01 -1.4615527502000E+00 -1.5622348283000E-01
    47  4.6000000000000E-01 -1.4504556027000E+00 -1.8181329318000E-01
    48  4.7000000000000E-01 -1.4373132664000E+00 -2.0844092112000E-01
    49  4.8000000000000E-01 -1.4221631355000E+00 -2.3607627738000E-01
    50  4.9000000000000E-01 -1.4050465387000E+00 -2.6468553043000E-01
    51  5.0000000000000E-01 -1.3860086641000E+00 -2.9423109394000E-01
    52  5.1000000000000E-01 -1.3650984749000E+00 -3.2467163810000E-01
    53  5.2000000000000E-01 -1.3423686188000E+00 -3.5596211158000E-01
    54  5.3000000000000E-01 -1.3178753143000E+00 -3.8805376459000E-01
    55  5.4000000000000E-01 -1.2916782457000E+00 -4.2089421735000E-01
    56  5.5000000000000E-01 -1.2638404328000E+00 -4.5442751797000E-01
    57  5.6000000000000E-01 -1.2344280937000E+00 -4.8859423149000E-01
    58  5.7000000000000E-01 -1.2035105104000E+00 -5.2333154061000E-01
    59  5.8000000000000E-01 -1.1711598590000E+00 -5.5857336541000E-01
    60  5.9000000000000E-01 -1.1374510629000E+00 -5.9425049624000E-01
    61  6.0000000000000E-01 -1.1024616129000E+00 -6.3029074700000E-01
    62  6.1000000000000E-01 -1.0662713735000E+00 -6.6661912975000E-01
    63  6.2000000000000E-01 -1.0289624468000E+00 -7.0315801270000E-01
    64  6.3000000000000E-01 -9.9061888821000E-01 -7.3982736765000E-01
    65  6.4000000000000E-01 -9.5132657911000E-01 -7.7654494384000E-01
    66  6.5000000000000E-01 -9.1117302112000E-01 -8.1322648824000E-01
    67  6.6000000000000E-01 -8.7024703351000E-01 -8.4978605432000E-01
    68  6.7000000000000E-01 -8.2863861826000E-01 -8.8613619634000E-01
    69  6.8000000000000E-01 -7.8643872657000E-01 -9.2218823925000E-01
    70  6.9000000000000E-01 -7.4373899949000E-01 -9.5785258376000E-01
    71  7.0000000000000E-01 -7.0063151527000E-01 -9.9303901726000E-01
    72  7.1000000000000E-01 -6.5720860457000E-01 -1.0276569663000E+00
    73  7.2000000000000E-01 -6.1356259339000E-01 -1.0616158207000E+00
    74  7.3000000000000E-01 -5.6978557641000E-01 -1.0948252343000E+00
    75  7.4000000000000E-01 -5.2596916277000E-01 -1.1271954596000E+00
    76  7.5000000000000E-01 -4.8220419753000E-01 -1.1586377155000E+00
    77  7.6000000000000E-01 -4.3858058889000E-01 -1.1890644445000E+00
    78  7.7000000000000E-01 -3.9518704782000E-01 -1.2183896663000E+00
    79  7.8000000000000E-01 -3.5211085458000E-01 -1.2465293059000E+00
    80  7.9000000000000E-01 -3.0943762876000E-01 -1.2734015205000E+00
    81  8.0000000000000E-01 -2.6725110383000E-01 -1.2989270232000E+00
    82  8.1000000000000E-01 -2.2563290684000E-01 -1.3230294022000E+00
    83  8.2000000000000E-01 -1.8466234415000E-01 -1.3456354335000E+00
    84  8.3000000000000E-01 -1.4441619392000E-01 -1.3666753868000E+00
    85  8.4000000000000E-01 -1.0496850607000E-01 -1.3860833216000E+00
    86  8.5000000000000E-01 -6.6390410509000E-02 -1.4037973728000E+00
    87  8.6000000000000E-01 -2.8749934223000E-02 -1.4197600256000E+00
    88  8.7000000000000E-01  7.8881719586000E-03 -1.4339183750000E+00
    89  8.8000000000000E-01  4.3462596375000E-02 -1.4462243726000E+00
    90  8.9000000000000E-01  7.7915618615000E-02 -1.4566350561000E+00
    91  9.0000000000000E-01  1.1119325008000E-01 -1.4651127619000E+00
    92  9.1000000000000E-01  1.4324536242000E-01 -1.4716253193000E+00
    93  9.2000000000000E-01  1.7402580336000E-01 -1.4761462243000E+00
    94  9.3000000000000E-01  2.0349249928000E-01 -1.4786547935000E+00
    95  9.4000000000000E-01  2.3160754424000E-01 -1.4791362953000E+00
    96  9.5000000000000E-01  2.5833727491000E-01 -1.4775820584000E+00
    97  9.6000000000000E-01  2.8365233123000E-01 -1.4739895569000E+00
    98  9.7000000000000E-01  3.0752760559000E-01 -1.4683623421000E+00
    99  9.8000000000000E-01  3.2994255967000E-01 -1.4607104612000E+00
   100  9.9000000000000E-01  3.5088099042000E-01 -1.4510501322000E+00
   101  1.0000000000000E+00  3.7033108830000E-01 -1.4394038045000E+00
   102  1.0100000000000E+00  3.8828543359000E-01 -1.4258001320000E+00
   103  1.0200000000000E+00  4.0474096753000E-01 -1.4102739062000E+00
   104  1.0300000000000E+00  4.1969888400000E-01 -1.3928658829000E+00
   105  1.0400000000000E+00  4.3316471797000E-01 -1.3736228557000E+00
   106  1.0500000000000E+00  4.4514828781000E-01 -1.3525975195000E+00
   107  1.0600000000000E+00  4.5566344107000E-01 -1.3298480911000E+00
   108  1.0700000000000E+00  4.6472802726000E-01 -1.3054382104000E+00
   109  1.0800000000000E+00  4.7236372890000E-01 -1.2794366743000E+00
   110  1.0900000000000E+00  4.7859610053000E-01 -1.2519173833000E+00
   111  1.1000000000000E+00  4.8345437330000E-01 -1.2229589748000E+00
   112  1.1100000000000E+00  4.8697118280000E-01 -1.1926444293000E+00
   113  1.1200000000000E+00  4.8918246224000E-01 -1.1610608507000E+00
   114  1.1300000000000E+00  4.9012732911000E-01 -1.1282992375000E+00
   115  1.1400000000000E+00  4.8984790336000E-01 -1.0944539517000E+00
   116  1.1500000000000E+00  4.8838899714000E-01 -1.0596224001000E+00
   117  1.1600000000000E+00  4.8579802100000E-01 -1.0239048342000E+00
   118  1.1700000000000E+00  4.8212478514000E-01 -9.8740385083000E-01
   119  1.1800000000000E+00  4.7742110690000E-01 -9.5022361049000E-01
   120  1.1900000000000E+00  4.7174072034000E-01 -9.1246986118000E-01
   121  1.2000000000000E+00  4.6513932023000E-01 -8.7425007645000E-01
   122  1.2100000000000E+00  4.5767360019000E-01 -8.3567122590000E-01
   123  1.2200000000000E+00  4.4940153104000E-01 -7.9684070982000E-01
   124  1.2300000000000E+00  4.4038240281000E-01 -7.5786644356000E-01
   125  1.2400000000000E+00  4.3067581108000E-01 -7.1885465977000E-01
   126  1.2500000000000E+00  4.2034162232000E-01 -6.7991001652000E-01
   127  1.2600000000000E+00  4.0944051108000E-01 -6.4113677478000E-01
   128  1.2700000000000E+00  3.9803267032000E-01 -6.0263608793000E-01
   129  1.2800000000000E+00  3.8617756532000E-01 -5.6450562744000E-01
   130  1.2900000000000E+00  3.7393510119000E-01 -5.2684201910000E-01
   131  1.3000000000000E+00  3.6136356829000E-01 -4.8973663844000E-01
   132  1.3100000000000E+00  3.4851983415000E-01 -4.5327612121000E-01
   133  1.3200000000000E+00  3.3546100598000E-01 -4.1754571733000E-01
   134  1.3300000000000E+00  3.2224081264000E-01 -3.8262204459000E-01
   135  1.3400000000000E+00  3.0891165190000E-01 -3.4857728388000E-01
   136  1.3500000000000E+00  2.9552558178000E-01 -3.1548111232000E-01
   137  1.3600000000000E+00  2.8212940759000E-01 -2.8339103069000E-01
   138  1.3700000000000E+00  2.6876980330000E-01 -2.5236252685000E-01
   139  1.3800000000000E+00  2.5549024326000E-01 -2.2244301230000E-01
   140  1.3900000000000E+00  2.4232976003000E-01 -1.9366947100000E-01
   141  1.4000000000000E+00  2.2932761619000E-01 -1.6607757077000E-01
   142  1.4100000000000E+00  2.1651585066000E-01 -1.3968713415000E-01
   143  1.4200000000000E+00  2.0392567463000E-01 -1.1451476842000E-01
   144  1.4300000000000E+00  1.9158413649000E-01 -9.0566727166000E-02
   145  1.4400000000000E+00  1.7951404929000E-01 -6.7842301150000E-02
   146  1.4500000000000E+00  1.6773832948000E-01 -4.6338492948000E-02
   147  1.4600000000000E+00  1.5627470820000E-01 -2.6047705044000E-02
   148  1.4700000000000E+00  1.4514154934000E-01 -6.9616656349000E-03
   149  1.4800000000000E+00  1.3435377924000E-01  1.0931318131000E-02
   150  1.4900000000000E+00  1.2392477821000E-01  2.7645062402000E-02
   151  1.5000000000000E+00  1.1386666588000E-01  4.3195407027000E-02
   152  1.5100000000000E+00  1.0418819030000E-01  5.7601281469000E-02
   153  1.5200000000000E+00  9.4898624333000E-02  7.0882595718000E-02
   154  1.5300000000000E+00  8.6002772423000E-02  8.3062731539000E-02
   155  1.5400000000000E+00  7.7506324364000E-02  9.4165846138000E-02
   156  1.5500000000000E+00  6.9411291007000E-02  1.0421891543000E-01
   157  1.5600000000000E+00  6.1719658128000E-02  1.1325005520000E-01
   158  1.5700000000000E+00  5.4430935685000E-02  1.2128946238000E-01
   159  1.5800000000000E+00  4.7543762165000E-02  1.2836860903000E-01
   160  1.5900000000000E+00  4.1055278054000E-02  1.3452058924000E-01
   161  1.6000000000000E+00  3.4961215995000E-02  1.3977956219000E-01
   162  1.6100000000000E+00  2.9256491470000E-02  1.4418115041000E-01
   163  1.6200000000000E+00  2.3934379301000E-02  1.4776152322000E-01
   164  1.6300000000000E+00  1.8987740870000E-02  1.5055841000000E-01
   165  1.6400000000000E+00  1.4407829080000E-02  1.5260933059000E-01
   166  1.6500000000000E+00  1.0185653924000E-02  1.5395364576000E-01
   167  1.6600000000000E+00  6.3108580966000E-03  1.5462960310000E-01
   168  1.6700000000000E+00  2.7728349881000E-03  1.5467766887000E-01
   169  1.6800000000000E+00 -4.4000344805000E-04  1.5413624847000E-01
   170  1.6900000000000E+00 -3.3396158828000E-03  1.5304634238000E-01
   171  1.7000000000000E+00 -5.9384799904000E-03  1.5144601135000E-01
   172  1.7100000000000E+00 -8.2496152914000E-03  1.4937617857000E-01
   173  1.7200000000000E+00 -1.0286091747000E-02  1.4687413870000E-01
   174  1.7300000000000E+00 -1.2061674783000E-02  1.4398009095000E-01
   175  1.7400000000000E+00 -1.3589778137000E-02  1.4073023562000E-01
   176  1.7500000000000E+00 -1.4884577321000E-02  1.3716337226000E-01
   177  1.7600000000000E+00 -1.5959634191000E-02  1.3331437931000E-01
   178  1.7700000000000E+00 -1.6829181451000E-02  1.2921996264000E-01
   179  1.7800000000000E+00 -1.7506787754000E-02  1.2491355206000E-01
   180  1.7900000000000E+00 -1.8006379506000E-02  1.2042906580000E-01
   181  1.8000000000000E+00 -1.8341442049000E-02  1.1579844664000E-01
   182  1.8100000000000E+00 -1.8525232629000E-02  1.1105216204000E-01
   183  1.8200000000000E+00 -1.8571104535000E-02  1.0622068924000E-01
   184  1.8300000000000E+00 -1.8491302003000E-02  1.0133045963000E-01
   185  1.8400000000000E+00 -1.8299020749000E-02  9.6410520355000E-02
   186  1.8500000000000E+00 -1.8005190880000E-02  9.1482814612000E-02
   187  1.8600000000000E+00 -1.7622819607000E-02  8.6574941005000E-02
   188  1.8700000000000E+00 -1.7161582011000E-02  8.1704865620000E-02
   189  1.8800000000000E+00 -1.6633392610000E-02  7.6896380761000E-02
   190  1.8900000000000E+00 -1.6047458440000E-02  7.2165822802000E-02
   191  1.9000000000000E+00 -1.5413998234000E-02  6.7531855407000E-02
   192  1.9100000000000E+00 -1.4741957218000E-02  6.3009714980000E-02
   193  1.9200000000000E+00 -1.4039590847000E-02  5.8612608473000E-02
   194  1.9300000000000E+00 -1.3315672900000E-02  5.4354848329000E-02
   195  1.9400000000000E+00 -1.2576418685000E-02  5.0244343393000E-02
   196  1.9500000000000E+00 -1.1830305671000E-02  4.6294126580000E-02
   197  1.9600000000000E+00 -1.1082095785000E-02  4.2508452278000E-02
   198  1.9700000000000E+00 -1.0338541139000E-02  3.8895874057000E-02
   199  1.9800000000000E+00 -9.6043785881000E-03  3.5460335439000E-02
   200  1.9900000000000E+00 -8.8841270144000E-03  3.2205067079000E-02
   201  2.0000000000000E+00 -8.1825758324000E-03  2.9133742657000E-02
   202  2.0100000000000E+00 -7.5022409863000E-03  2.6245143767000E-02
   203  2.0200000000000E+00 -6.8474969106000E-03  2.3541593632000E-02
   204  2.0300000000000E+00 -6.2198517457000E-03  2.1019711464000E-02
   205  2.0400000000000E+00 -5.6219439573000E-03  1.8678039655000E-02
   206  2.0500000000000E+00 -5.0555307324000E-03  1.6513433416000E-02
   207  2.0600000000000E+00 -4.5213252828000E-03  1.4520744062000E-02
   208  2.0700000000000E+00 -4.0211876284000E-03  1.2696524344000E-02
   209  2.0800000000000E+00 -3.5546668596000E-03  1.1033668990000E-02
   210  2.0900000000000E+00 -3.1224551282000E-03  9.5264994309000E-03
   211  2.1000000000000E+00 -2.7243115328000E-03  8.1680908491000E-03
   212  2.1100000000000E+00 -2.3595069663000E-03  6.9507640648000E-03
   213  2.1200000000000E+00 -2.0279196293000E-03  5.8671976849000E-03
   214  2.1300000000000E+00 -1.7280638726000E-03  4.9091026852000E-03
   215  2.1400000000000E+00 -1.4590601646000E-03  4.0681480867000E-03
   216  2.1500000000000E+00 -1.2195929791000E-03  3.3360456597000E-03
   217  2.1600000000000E+00 -1.0080229086000E-03  2.7044859171000E-03
   218  2.1700000000000E+00 -8.2298964684000E-04  2.1642699775000E-03
   219  2.1800000000000E+00 -6.6263202864000E-04  1.7078612978000E-03
   220  2.1900000000000E+00 -5.2519638508000E-04  1.3265240058000E-03
   221  2.2000000000000E+00 -4.0888917701000E-04  1.0119679156000E-03
   222  2.2100000000000E+00 -3.1186888242000E-04  7.5728649764000E-04
   223  2.2200000000000E+00 -2.3215606264000E-04  5.5363201514000E-04
   224  2.2300000000000E+00 -1.6800041428000E-04  3.9489393215000E-04
   225  2.2400000000000E+00 -1.1757830121000E-04  2.7455217564000E-04
   226  2.2500000000000E+00 -7.8871218201000E-05  1.8472645918000E-04
   227  2.2600000000000E+00 -5.0416095056000E-05  1.2153178095000E-04
   228  2.2700000000000E+00 -3.0361617884000E-05  7.8670541334000E-05
   229  2.2800000000000E+00 -1.7046220280000E-05  5.1036634954000E-05
   230  2.2900000000000E+00 -9.1834590803000E-06  3.5794552448000E-05
   231  2.3000000000000E+00 -4.9656068447000E-06  2.8185395678000E-05
   232  2.3100000000000E+00 -3.2882443499000E-06  2.5166753421000E-05
   233  2.3200000000000E+00 -3.0957328832000E-06  2.3810095555000E-05
   234  2.3300000000000E+00 -1.7823965259000E-06  1.5321446866000E-05
   235  2.3400000000000E+00 -6.6852866298000E-07  6.3399774223000E-06
   236  2.3500000000000E+00  6.0285335822000E-08 -4.6138391942000E-07
   237  2.3600000000000E+00  2.0756549316000E-07 -1.5885684216000E-06
   238  2.3700000000000E+00  1.1753033634000E-07 -8.9949913181000E-07
   239  2.3800000000000E+00  0.0000000000000E+00  0.0000000000000E+00
   240  2.3900000000000E+00  0.0000000000000E+00  0.0000000000000E+00
   241  2.4000000000000E+00  0.0000000000000E+00  0.0000000000000E+00
   242  2.4100000000000E+00  0.0000000000000E+00  0.0000000000000E+00
   243  2.4200000000000E+00  0.0000000000000E+00  0.0000000000000E+00
   244  2.4300000000000E+00  0.0000000000000E+00  0.0000000000000E+00
   245  2.4400000000000E+00  0.0000000000000E+00  0.0000000000000E+00
   246  2.4500000000000E+00  0.0000000000000E+00  0.0000000000000E+00
   247  2.4600000000000E+00  0.0000000000000E+00  0.0000000000000E+00
   248  2.4700000000000E+00  0.0000000000000E+00  0.0000000000000E+00
   249  2.4800000000000E+00  0.0000000000000E+00  0.0000000000000E+00
   250  2.4900000000000E+00  0.0000000000000E+00  0.0000000000000E+00
   251  2.5000000000000E+00  0.0000000000000E+00  0.0000000000000E+00
   252  2.5100000000000E+00  0.0000000000000E+00  0.0000000000000E+00
   253  2.5200000000000E+00  0.0000000000000E+00  0.0000000000000E+00
   254  2.5300000000000E+00  0.0000000000000E+00  0.0000000000000E+00
   255  2.5400000000000E+00  0.0000000000000E+00  0.0000000000000E+00
   256  2.5500000000000E+00  0.0000000000000E+00  0.0000000000000E+00
   257  2.5600000000000E+00  0.0000000000000E+00  0.0000000000000E+00
   258  2.5700000000000E+00  0.0000000000000E+00  0.0000000000000E+00
   259  2.5800000000000E+00  0.0000000000000E+00  0.0000000000000E+00
   260  2.5900000000000E+00  0.0000000000000E+00  0.0000000000000E+00
   261  2.6000000000000E+00  0.0000000000000E+00  0.0000000000000E+00
   262  2.6100000000000E+00  0.0000000000000E+00  0.0000000000000E+00
   263  2.6200000000000E+00  0.0000000000000E+00  0.0000000000000E+00
   264  2.6300000000000E+00  0.0000000000000E+00  0.0000000000000E+00
   265  2.6400000000000E+00  0.0000000000000E+00  0.0000000000000E+00
   266  2.6500000000000E+00  0.0000000000000E+00  0.0000000000000E+00
   267  2.6600000000000E+00  0.0000000000000E+00  0.0000000000000E+00
   268  2.6700000000000E+00  0.0000000000000E+00  0.0000000000000E+00
   269  2.6800000000000E+00  0.0000000000000E+00  0.0000000000000E+00
   270  2.6900000000000E+00  0.0000000000000E+00  0.0000000000000E+00
   271  2.7000000000000E+00  0.0000000000000E+00  0.0000000000000E+00
   272  2.7100000000000E+00  0.0000000000000E+00  0.0000000000000E+00
   273  2.7200000000000E+00  0.0000000000000E+00  0.0000000000000E+00
   274  2.7300000000000E+00  0.0000000000000E+00  0.0000000000000E+00
   275  2.7400000000000E+00  0.0000000000000E+00  0.0000000000000E+00
   276  2.7500000000000E+00  0.0000000000000E+00  0.0000000000000E+00
   277  2.7600000000000E+00  0.0000000000000E+00  0.0000000000000E+00
   278  2.7700000000000E+00  0.0000000000000E+00  0.0000000000000E+00
   279  2.7800000000000E+00  0.0000000000000E+00  0.0000000000000E+00
   280  2.7900000000000E+00  0.0000000000000E+00  0.0000000000000E+00
   281  2.8000000000000E+00  0.0000000000000E+00  0.0000000000000E+00
   282  2.8100000000000E+00  0.0000000000000E+00  0.0000000000000E+00
   283  2.8200000000000E+00  0.0000000000000E+00  0.0000000000000E+00
   284  2.8300000000000E+00  0.0000000000000E+00  0.0000000000000E+00
   285  2.8400000000000E+00  0.0000000000000E+00  0.0000000000000E+00
   286  2.8500000000000E+00  0.0000000000000E+00  0.0000000000000E+00
   287  2.8600000000000E+00  0.0000000000000E+00  0.0000000000000E+00
   288  2.8700000000000E+00  0.0000000000000E+00  0.0000000000000E+00
   289  2.8800000000000E+00  0.0000000000000E+00  0.0000000000000E+00
   290  2.8900000000000E+00  0.0000000000000E+00  0.0000000000000E+00
   291  2.9000000000000E+00  0.0000000000000E+00  0.0000000000000E+00
   292  2.9100000000000E+00  0.0000000000000E+00  0.0000000000000E+00
   293  2.9200000000000E+00  0.0000000000000E+00  0.0000000000000E+00
   294  2.9300000000000E+00  0.0000000000000E+00  0.0000000000000E+00
   295  2.9400000000000E+00  0.0000000000000E+00  0.0000000000000E+00
   296  2.9500000000000E+00  0.0000000000000E+00  0.0000000000000E+00
   297  2.9600000000000E+00  0.0000000000000E+00  0.0000000000000E+00
   298  2.9700000000000E+00  0.0000000000000E+00  0.0000000000000E+00
   299  2.9800000000000E+00  0.0000000000000E+00  0.0000000000000E+00
   300  2.9900000000000E+00  0.0000000000000E+00  0.0000000000000E+00
   301  3.0000000000000E+00  0.0000000000000E+00  0.0000000000000E+00
   302  3.0100000000000E+00  0.0000000000000E+00  0.0000000000000E+00
   303  3.0200000000000E+00  0.0000000000000E+00  0.0000000000000E+00
   304  3.0300000000000E+00  0.0000000000000E+00  0.0000000000000E+00
   305  3.0400000000000E+00  0.0000000000000E+00  0.0000000000000E+00
   306  3.0500000000000E+00  0.0000000000000E+00  0.0000000000000E+00
   307  3.0600000000000E+00  0.0000000000000E+00  0.0000000000000E+00
   308  3.0700000000000E+00  0.0000000000000E+00  0.0000000000000E+00
   309  3.0800000000000E+00  0.0000000000000E+00  0.0000000000000E+00
   310  3.0900000000000E+00  0.0000000000000E+00  0.0000000000000E+00
   311  3.1000000000000E+00  0.0000000000000E+00  0.0000000000000E+00
   312  3.1100000000000E+00  0.0000000000000E+00  0.0000000000000E+00
   313  3.1200000000000E+00  0.0000000000000E+00  0.0000000000000E+00
   314  3.1300000000000E+00  0.0000000000000E+00  0.0000000000000E+00
   315  3.1400000000000E+00  0.0000000000000E+00  0.0000000000000E+00
   316  3.1500000000000E+00  0.0000000000000E+00  0.0000000000000E+00
   317  3.1600000000000E+00  0.0000000000000E+00  0.0000000000000E+00
   318  3.1700000000000E+00  0.0000000000000E+00  0.0000000000000E+00
   319  3.1800000000000E+00  0.0000000000000E+00  0.0000000000000E+00
   320  3.1900000000000E+00  0.0000000000000E+00  0.0000000000000E+00
   321  3.2000000000000E+00  0.0000000000000E+00  0.0000000000000E+00
   322  3.2100000000000E+00  0.0000000000000E+00  0.0000000000000E+00
   323  3.2200000000000E+00  0.0000000000000E+00  0.0000000000000E+00
   324  3.2300000000000E+00  0.0000000000000E+00  0.0000000000000E+00
   325  3.2400000000000E+00  0.0000000000000E+00  0.0000000000000E+00
   326  3.2500000000000E+00  0.0000000000000E+00  0.0000000000000E+00
   327  3.2600000000000E+00  0.0000000000000E+00  0.0000000000000E+00
   328  3.2700000000000E+00  0.0000000000000E+00  0.0000000000000E+00
   329  3.2800000000000E+00  0.0000000000000E+00  0.0000000000000E+00
   330  3.2900000000000E+00  0.0000000000000E+00  0.0000000000000E+00
   331  3.3000000000000E+00  0.0000000000000E+00  0.0000000000000E+00
   332  3.3100000000000E+00  0.0000000000000E+00  0.0000000000000E+00
   333  3.3200000000000E+00  0.0000000000000E+00  0.0000000000000E+00
   334  3.3300000000000E+00  0.0000000000000E+00  0.0000000000000E+00
   335  3.3400000000000E+00  0.0000000000000E+00  0.0000000000000E+00
   336  3.3500000000000E+00  0.0000000000000E+00  0.0000000000000E+00
   337  3.3600000000000E+00  0.0000000000000E+00  0.0000000000000E+00
   338  3.3700000000000E+00  0.0000000000000E+00  0.0000000000000E+00
   339  3.3800000000000E+00  0.0000000000000E+00  0.0000000000000E+00
   340  3.3900000000000E+00  0.0000000000000E+00  0.0000000000000E+00
   341  3.4000000000000E+00  0.0000000000000E+00  0.0000000000000E+00
   342  3.4100000000000E+00  0.0000000000000E+00  0.0000000000000E+00
   343  3.4200000000000E+00  0.0000000000000E+00  0.0000000000000E+00
   344  3.4300000000000E+00  0.0000000000000E+00  0.0000000000000E+00
   345  3.4400000000000E+00  0.0000000000000E+00  0.0000000000000E+00
   346  3.4500000000000E+00  0.0000000000000E+00  0.0000000000000E+00
   347  3.4600000000000E+00  0.0000000000000E+00  0.0000000000000E+00
   348  3.4700000000000E+00  0.0000000000000E+00  0.0000000000000E+00
   349  3.4800000000000E+00  0.0000000000000E+00  0.0000000000000E+00
   350  3.4900000000000E+00  0.0000000000000E+00  0.0000000000000E+00
   351  3.5000000000000E+00  0.0000000000000E+00  0.0000000000000E+00
   352  3.5100000000000E+00  0.0000000000000E+00  0.0000000000000E+00
   353  3.5200000000000E+00  0.0000000000000E+00  0.0000000000000E+00
   354  3.5300000000000E+00  0.0000000000000E+00  0.0000000000000E+00
   355  3.5400000000000E+00  0.0000000000000E+00  0.0000000000000E+00
   356  3.5500000000000E+00  0.0000000000000E+00  0.0000000000000E+00
   357  3.5600000000000E+00  0.0000000000000E+00  0.0000000000000E+00
   358  3.5700000000000E+00  0.0000000000000E+00  0.0000000000000E+00
   359  3.5800000000000E+00  0.0000000000000E+00  0.0000000000000E+00
   360  3.5900000000000E+00  0.0000000000000E+00  0.0000000000000E+00
   361  3.6000000000000E+00  0.0000000000000E+00  0.0000000000000E+00
   362  3.6100000000000E+00  0.0000000000000E+00  0.0000000000000E+00
   363  3.6200000000000E+00  0.0000000000000E+00  0.0000000000000E+00
   364  3.6300000000000E+00  0.0000000000000E+00  0.0000000000000E+00
   365  3.6400000000000E+00  0.0000000000000E+00  0.0000000000000E+00
   366  3.6500000000000E+00  0.0000000000000E+00  0.0000000000000E+00
   367  3.6600000000000E+00  0.0000000000000E+00  0.0000000000000E+00
   368  3.6700000000000E+00  0.0000000000000E+00  0.0000000000000E+00
   369  3.6800000000000E+00  0.0000000000000E+00  0.0000000000000E+00
   370  3.6900000000000E+00  0.0000000000000E+00  0.0000000000000E+00
   371  3.7000000000000E+00  0.0000000000000E+00  0.0000000000000E+00
   372  3.7100000000000E+00  0.0000000000000E+00  0.0000000000000E+00
   373  3.7200000000000E+00  0.0000000000000E+00  0.0000000000000E+00
   374  3.7300000000000E+00  0.0000000000000E+00  0.0000000000000E+00
   375  3.7400000000000E+00  0.0000000000000E+00  0.0000000000000E+00
   376  3.7500000000000E+00  0.0000000000000E+00  0.0000000000000E+00
   377  3.7600000000000E+00  0.0000000000000E+00  0.0000000000000E+00
   378  3.7700000000000E+00  0.0000000000000E+00  0.0000000000000E+00
   379  3.7800000000000E+00  0.0000000000000E+00  0.0000000000000E+00
   380  3.7900000000000E+00  0.0000000000000E+00  0.0000000000000E+00
   381  3.8000000000000E+00  0.0000000000000E+00  0.0000000000000E+00
   382  3.8100000000000E+00  0.0000000000000E+00  0.0000000000000E+00
   383  3.8200000000000E+00  0.0000000000000E+00  0.0000000000000E+00
   384  3.8300000000000E+00  0.0000000000000E+00  0.0000000000000E+00
   385  3.8400000000000E+00  0.0000000000000E+00  0.0000000000000E+00
   386  3.8500000000000E+00  0.0000000000000E+00  0.0000000000000E+00
   387  3.8600000000000E+00  0.0000000000000E+00  0.0000000000000E+00
   388  3.8700000000000E+00  0.0000000000000E+00  0.0000000000000E+00
   389  3.8800000000000E+00  0.0000000000000E+00  0.0000000000000E+00
   390  3.8900000000000E+00  0.0000000000000E+00  0.0000000000000E+00
   391  3.9000000000000E+00  0.0000000000000E+00  0.0000000000000E+00
   392  3.9100000000000E+00  0.0000000000000E+00  0.0000000000000E+00
   393  3.9200000000000E+00  0.0000000000000E+00  0.0000000000000E+00
   394  3.9300000000000E+00  0.0000000000000E+00  0.0000000000000E+00
   395  3.9400000000000E+00  0.0000000000000E+00  0.0000000000000E+00
   396  3.9500000000000E+00  0.0000000000000E+00  0.0000000000000E+00
   397  3.9600000000000E+00  0.0000000000000E+00  0.0000000000000E+00
   398  3.9700000000000E+00  0.0000000000000E+00  0.0000000000000E+00
   399  3.9800000000000E+00  0.0000000000000E+00  0.0000000000000E+00
   400  3.9900000000000E+00  0.0000000000000E+00  0.0000000000000E+00
   401  4.0000000000000E+00  0.0000000000000E+00  0.0000000000000E+00
   402  4.0100000000000E+00  0.0000000000000E+00  0.0000000000000E+00
   403  4.0200000000000E+00  0.0000000000000E+00  0.0000000000000E+00
   404  4.0300000000000E+00  0.0000000000000E+00  0.0000000000000E+00
   405  4.0400000000000E+00  0.0000000000000E+00  0.0000000000000E+00
   406  4.0500000000000E+00  0.0000000000000E+00  0.0000000000000E+00
   407  4.0600000000000E+00  0.0000000000000E+00  0.0000000000000E+00
   408  4.0700000000000E+00  0.0000000000000E+00  0.0000000000000E+00
   409  4.0800000000000E+00  0.0000000000000E+00  0.0000000000000E+00
   410  4.0900000000000E+00  0.0000000000000E+00  0.0000000000000E+00
   411  4.1000000000000E+00  0.0000000000000E+00  0.0000000000000E+00
   412  4.1100000000000E+00  0.0000000000000E+00  0.0000000000000E+00
   413  4.1200000000000E+00  0.0000000000000E+00  0.0000000000000E+00
   414  4.1300000000000E+00  0.0000000000000E+00  0.0000000000000E+00
   415  4.1400000000000E+00  0.0000000000000E+00  0.0000000000000E+00
   416  4.1500000000000E+00  0.0000000000000E+00  0.0000000000000E+00
   417  4.1600000000000E+00  0.0000000000000E+00  0.0000000000000E+00
   418  4.1700000000000E+00  0.0000000000000E+00  0.0000000000000E+00
   419  4.1800000000000E+00  0.0000000000000E+00  0.0000000000000E+00
   420  4.1900000000000E+00  0.0000000000000E+00  0.0000000000000E+00
   421  4.2000000000000E+00  0.0000000000000E+00  0.0000000000000E+00
   422  4.2100000000000E+00  0.0000000000000E+00  0.0000000000000E+00
   423  4.2200000000000E+00  0.0000000000000E+00  0.0000000000000E+00