Au   ONCVPSP-2.1.1   r_core=    2.46102 2.46102 2.18429 3.12411
    79.0000   19.0000   150105   zatom,zion,pspd
    8   11   3   4   600   0   pspcod,pspxc,lmax,lloc,mmax,r2well
    5.99000000   0.00000000   0.00000000   rchrg fchrg qchrg
    2   2   2   2   0   nproj
    1   1   extension_switch
       0                         4.0815887879500E+00  5.5114973020000E-01
     1  0.0000000000000E+00  0.0000000000000E+00  0.0000000000000E+00
     2  1.0000000000000E-02  5.6351615936000E-02 -5.5251539959000E-03
     3  2.0000000000000E-02  1.1261254450000E-01 -1.1054416126000E-02
     4  3.0000000000000E-02  1.6869225962000E-01 -1.6591963268000E-02
     5  4.0000000000000E-02  2.2450055755000E-01 -2.2142109214000E-02
     6  5.0000000000000E-02  2.7994771736000E-01 -2.7709371692000E-02
     7  6.0000000000000E-02  3.3494466061000E-01 -3.3298537672000E-02
     8  7.0000000000000E-02  3.8940310995000E-01 -3.8914726414000E-02
     9  8.0000000000000E-02  4.4323574639000E-01 -4.4563449689000E-02
    10  9.0000000000000E-02  4.9635636489000E-01 -5.0250668664000E-02
    11  1.0000000000000E-01  5.4868002819000E-01 -5.5982846930000E-02
    12  1.1000000000000E-01  6.0012321840000E-01 -6.1766999182000E-02
    13  1.2000000000000E-01  6.5060398620000E-01 -6.7610735093000E-02
    14  1.3000000000000E-01  7.0004209750000E-01 -7.3522297918000E-02
    15  1.4000000000000E-01  7.4835917705000E-01 -7.9510597444000E-02
    16  1.5000000000000E-01  7.9547884894000E-01 -8.5585236881000E-02
    17  1.6000000000000E-01  8.4132687379000E-01 -9.1756533357000E-02
    18  1.7000000000000E-01  8.8583128216000E-01 -9.8035531687000E-02
    19  1.8000000000000E-01  9.2892250412000E-01 -1.0443401117000E-01
    20  1.9000000000000E-01  9.7053349483000E-01 -1.1096448516000E-01
    21  2.0000000000000E-01  1.0105998556000E+00 -1.1764019315000E-01
    22  2.1000000000000E-01  1.0490599504000E+00 -1.2447508541000E-01
    23  2.2000000000000E-01  1.0858550179000E+00 -1.3148379975000E-01
    24  2.3000000000000E-01  1.1209292779000E+00 -1.3868163069000E-01
    25  2.4000000000000E-01  1.1542300334000E+00 -1.4608449077000E-01
    26  2.5000000000000E-01  1.1857077663000E+00 -1.5370886411000E-01
    27  2.6000000000000E-01  1.2153162284000E+00 -1.6157175224000E-01
    28  2.7000000000000E-01  1.2430125265000E+00 -1.6969061248000E-01
    29  2.8000000000000E-01  1.2687572005000E+00 -1.7808328883000E-01
    30  2.9000000000000E-01  1.2925142970000E+00 -1.8676793568000E-01
    31  3.0000000000000E-01  1.3142514355000E+00 -1.9576293455000E-01
    32  3.1000000000000E-01  1.3339398688000E+00 -2.0508680420000E-01
    33  3.2000000000000E-01  1.3515545361000E+00 -2.1475810446000E-01
    34  3.3000000000000E-01  1.3670741098000E+00 -2.2479533500000E-01
    35  3.4000000000000E-01  1.3804810369000E+00 -2.3521682556000E-01
    36  3.5000000000000E-01  1.3917615698000E+00 -2.4604062698000E-01
    37  3.6000000000000E-01  1.4009057949000E+00 -2.5728438997000E-01
    38  3.7000000000000E-01  1.4079076490000E+00 -2.6896524844000E-01
    39  3.8000000000000E-01  1.4127649331000E+00 -2.8109969246000E-01
    40  3.9000000000000E-01  1.4154793158000E+00 -2.9370344138000E-01
    41  4.0000000000000E-01  1.4160563306000E+00 -3.0679131610000E-01
    42  4.1000000000000E-01  1.4145053656000E+00 -3.2037710790000E-01
    43  4.2000000000000E-01  1.4108396455000E+00 -3.3447344716000E-01
    44  4.3000000000000E-01  1.4050762071000E+00 -3.4909167214000E-01
    45  4.4000000000000E-01  1.3972358660000E+00 -3.6424169841000E-01
    46  4.5000000000000E-01  1.3873431767000E+00 -3.7993188975000E-01
    47  4.6000000000000E-01  1.3754263852000E+00 -3.9616893131000E-01
    48  4.7000000000000E-01  1.3615173738000E+00 -4.1295770577000E-01
    49  4.8000000000000E-01  1.3456515990000E+00 -4.3030117399000E-01
    50  4.9000000000000E-01  1.3278680228000E+00 -4.4820026340000E-01
    51  5.0000000000000E-01  1.3082090333000E+00 -4.6665374368000E-01
    52  5.1000000000000E-01  1.2867203622000E+00 -4.8565813580000E-01
    53  5.2000000000000E-01  1.2634509981000E+00 -5.0520762099000E-01
    54  5.3000000000000E-01  1.2384530785000E+00 -5.2529392446000E-01
    55  5.4000000000000E-01  1.2117817945000E+00 -5.4590625944000E-01
    56  5.5000000000000E-01  1.1834952785000E+00 -5.6703124759000E-01
    57  5.6000000000000E-01  1.1536544762000E+00 -5.8865284014000E-01
    58  5.7000000000000E-01  1.1223230438000E+00 -6.1075229607000E-01
    59  5.8000000000000E-01  1.0895671881000E+00 -6.3330809952000E-01
    60  5.9000000000000E-01  1.0554555642000E+00 -6.5629596862000E-01
    61  6.0000000000000E-01  1.0200591049000E+00 -6.7968880452000E-01
    62  6.1000000000000E-01  9.8345088606000E-01 -7.0345669742000E-01
    63  6.2000000000000E-01  9.4570599550000E-01 -7.2756694431000E-01
    64  6.3000000000000E-01  9.0690131964000E-01 -7.5198403051000E-01
    65  6.4000000000000E-01  8.6711544534000E-01 -7.7666970022000E-01
    66  6.5000000000000E-01  8.2642847355000E-01 -8.0158298426000E-01
    67  6.6000000000000E-01  7.8492181011000E-01 -8.2668024717000E-01
    68  6.7000000000000E-01  7.4267804659000E-01 -8.5191527866000E-01
    69  6.8000000000000E-01  6.9978078867000E-01 -8.7723937194000E-01
    70  6.9000000000000E-01  6.5631441821000E-01 -9.0260141657000E-01
    71  7.0000000000000E-01  6.1236394846000E-01 -9.2794801897000E-01
    72  7.1000000000000E-01  5.6801484975000E-01 -9.5322362693000E-01
    73  7.2000000000000E-01  5.2335285621000E-01 -9.7837066765000E-01
    74  7.3000000000000E-01  4.7846380309000E-01 -1.0033296928000E+00
    75  7.4000000000000E-01  4.3343337351000E-01 -1.0280395593000E+00
    76  7.5000000000000E-01  3.8834696142000E-01 -1.0524375977000E+00
    77  7.6000000000000E-01  3.4328948441000E-01 -1.0764597979000E+00
    78  7.7000000000000E-01  2.9834519033000E-01 -1.1000410106000E+00
    79  7.8000000000000E-01  2.5359747184000E-01 -1.1231151563000E+00
    80  7.9000000000000E-01  2.0912868263000E-01 -1.1456154445000E+00
    81  8.0000000000000E-01  1.6501995561000E-01 -1.1674746019000E+00
    82  8.1000000000000E-01  1.2135102359000E-01 -1.1886251084000E+00
    83  8.2000000000000E-01  7.8200043022000E-02 -1.2089994402000E+00
    84  8.3000000000000E-01  3.5643421038000E-02 -1.2285303189000E+00
    85  8.4000000000000E-01 -6.2443535282000E-03 -1.2471509667000E+00
    86  8.5000000000000E-01 -4.7390874860000E-02 -1.2647953647000E+00
    87  8.6000000000000E-01 -8.7725980081000E-02 -1.2813985149000E+00
    88  8.7000000000000E-01 -1.2718190395000E-01 -1.2968967048000E+00
    89  8.8000000000000E-01 -1.6569342791000E-01 -1.3112277718000E+00
    90  8.9000000000000E-01 -2.0319802298000E-01 -1.3243313682000E+00
    91  9.0000000000000E-01 -2.3963598616000E-01 -1.3361492252000E+00
    92  9.1000000000000E-01 -2.7495056976000E-01 -1.3466254130000E+00
    93  9.2000000000000E-01 -3.0908810337000E-01 -1.3557065984000E+00
    94  9.3000000000000E-01 -3.4199810794000E-01 -1.3633422967000E+00
    95  9.4000000000000E-01 -3.7363340153000E-01 -1.3694851166000E+00
    96  9.5000000000000E-01 -4.0395019652000E-01 -1.3740909989000E+00
    97  9.6000000000000E-01 -4.3290818766000E-01 -1.3771194441000E+00
    98  9.7000000000000E-01 -4.6047059165000E-01 -1.3785336753000E+00
    99  9.8000000000000E-01 -4.8660426763000E-01 -1.3783009110000E+00
   100  9.9000000000000E-01 -5.1127986816000E-01 -1.3763927036000E+00
   101  1.0000000000000E+00 -5.3447173088000E-01 -1.3727848948000E+00
   102  1.0100000000000E+00 -5.5615797775000E-01 -1.3674578670000E+00
   103  1.0200000000000E+00 -5.7632054368000E-01 -1.3603966944000E+00
   104  1.0300000000000E+00 -5.9494517857000E-01 -1.3515912497000E+00
   105  1.0400000000000E+00 -6.1202137301000E-01 -1.3410361706000E+00
   106  1.0500000000000E+00 -6.2754273707000E-01 -1.3287316259000E+00
   107  1.0600000000000E+00 -6.4150657928000E-01 -1.3146827104000E+00
   108  1.0700000000000E+00 -6.5391401155000E-01 -1.2988997192000E+00
   109  1.0800000000000E+00 -6.6476988002000E-01 -1.2813981190000E+00
   110  1.0900000000000E+00 -6.7408271409000E-01 -1.2621985379000E+00
   111  1.1000000000000E+00 -6.8186497735000E-01 -1.2413274060000E+00
   112  1.1100000000000E+00 -6.8813260441000E-01 -1.2188161542000E+00
   113  1.1200000000000E+00 -6.9290505771000E-01 -1.1947014221000E+00
   114  1.1300000000000E+00 -6.9620512587000E-01 -1.1690246885000E+00
   115  1.1400000000000E+00 -6.9805928379000E-01 -1.1418332918000E+00
   116  1.1500000000000E+00 -6.9849709640000E-01 -1.1131792022000E+00
   117  1.1600000000000E+00 -6.9755123977000E-01 -1.0831191606000E+00
   118  1.1700000000000E+00 -6.9525742520000E-01 -1.0517145797000E+00
   119  1.1800000000000E+00 -6.9165438662000E-01 -1.0190319028000E+00
   120  1.1900000000000E+00 -6.8678350087000E-01 -9.8514164125000E-01
   121  1.2000000000000E+00 -6.8068877403000E-01 -9.5011835493000E-01
   122  1.2100000000000E+00 -6.7341672494000E-01 -9.1404088877000E-01
   123  1.2200000000000E+00 -6.6501608972000E-01 -8.7699165705000E-01
   124  1.2300000000000E+00 -6.5553779898000E-01 -8.3905644610000E-01
   125  1.2400000000000E+00 -6.4503478162000E-01 -8.0032437194000E-01
   126  1.2500000000000E+00 -6.3356155454000E-01 -7.6088726707000E-01
   127  1.2600000000000E+00 -6.2117441001000E-01 -7.2083958954000E-01
   128  1.2700000000000E+00 -6.0793112673000E-01 -6.8027820923000E-01
   129  1.2800000000000E+00 -5.9389029104000E-01 -6.3930141776000E-01
   130  1.2900000000000E+00 -5.7911192751000E-01 -5.9800947755000E-01
   131  1.3000000000000E+00 -5.6365685678000E-01 -5.5650388190000E-01
   132  1.3100000000000E+00 -5.4758597535000E-01 -5.1488613871000E-01
   133  1.3200000000000E+00 -5.3096141324000E-01 -4.7325928338000E-01
   134  1.3300000000000E+00 -5.1384497291000E-01 -4.3172565453000E-01
   135  1.3400000000000E+00 -4.9629814028000E-01 -3.9038662555000E-01
   136  1.3500000000000E+00 -4.7838356812000E-01 -3.4934492388000E-01
   137  1.3600000000000E+00 -4.6016175052000E-01 -3.0869931561000E-01
   138  1.3700000000000E+00 -4.4169351819000E-01 -2.6854837328000E-01
   139  1.3800000000000E+00 -4.2303946516000E-01 -2.2898966068000E-01
   140  1.3900000000000E+00 -4.0425739586000E-01 -1.9011522423000E-01
   141  1.4000000000000E+00 -3.8540617614000E-01 -1.5201811220000E-01
   142  1.4100000000000E+00 -3.6654141989000E-01 -1.1478490104000E-01
   143  1.4200000000000E+00 -3.4771774401000E-01 -7.8499416630000E-02
   144  1.4300000000000E+00 -3.2898922538000E-01 -4.3243671936000E-02
   145  1.4400000000000E+00 -3.1040529931000E-01 -9.0902287629000E-03
   146  1.4500000000000E+00 -2.9201680373000E-01  2.3886748252000E-02
   147  1.4600000000000E+00 -2.7386891417000E-01  5.5624604353000E-02
   148  1.4700000000000E+00 -2.5600658894000E-01  8.6062202160000E-02
   149  1.4800000000000E+00 -2.3847175842000E-01  1.1514512181000E-01
   150  1.4900000000000E+00 -2.2130225072000E-01  1.4282796200000E-01
   151  1.5000000000000E+00 -2.0453624121000E-01  1.6906565546000E-01
   152  1.5100000000000E+00 -1.8820423010000E-01  1.9382925715000E-01
   153  1.5200000000000E+00 -1.7233902025000E-01  2.1708637615000E-01
   154  1.5300000000000E+00 -1.5696482615000E-01  2.3882275206000E-01
   155  1.5400000000000E+00 -1.4210692885000E-01  2.5902315686000E-01
   156  1.5500000000000E+00 -1.2778415158000E-01  2.7768642563000E-01
   157  1.5600000000000E+00 -1.1401341231000E-01  2.9481645190000E-01
   158  1.5700000000000E+00 -1.0080770389000E-01  3.1042628576000E-01
   159  1.5800000000000E+00 -8.8175448672000E-02  3.2453928551000E-01
   160  1.5900000000000E+00 -7.6122946486000E-02  3.3718533529000E-01
   161  1.6000000000000E+00 -6.4651858926000E-02  3.4840088950000E-01
   162  1.6100000000000E+00 -5.3763389013000E-02  3.5822597979000E-01
   163  1.6200000000000E+00 -4.3455305075000E-02  3.6670023637000E-01
   164  1.6300000000000E+00 -3.3725900557000E-02  3.7386553912000E-01
   165  1.6400000000000E+00 -2.4569792695000E-02  3.7976327344000E-01
   166  1.6500000000000E+00 -1.5982401460000E-02  3.8443736034000E-01
   167  1.6600000000000E+00 -7.9555512936000E-03  3.8793091498000E-01
   168  1.6700000000000E+00 -4.8190713462000E-04  3.9028985988000E-01
   169  1.6800000000000E+00  6.4491263624000E-03  3.9155884955000E-01
   170  1.6900000000000E+00  1.2847458064000E-02  3.9178562172000E-01
   171  1.7000000000000E+00  1.8725738864000E-02  3.9101610747000E-01
   172  1.7100000000000E+00  2.4096226579000E-02  3.8929958792000E-01
   173  1.7200000000000E+00  2.8973279269000E-02  3.8668296430000E-01
   174  1.7300000000000E+00  3.3371235279000E-02  3.8321669419000E-01
   175  1.7400000000000E+00  3.7305836266000E-02  3.7894832980000E-01
   176  1.7500000000000E+00  4.0793187331000E-02  3.7392903274000E-01
   177  1.7600000000000E+00  4.3850126184000E-02  3.6820670801000E-01
   178  1.7700000000000E+00  4.6494164008000E-02  3.6183263884000E-01
   179  1.7800000000000E+00  4.8742992482000E-02  3.5485482941000E-01
   180  1.7900000000000E+00  5.0615113554000E-02  3.4732396906000E-01
   181  1.8000000000000E+00  5.2128891529000E-02  3.3928799607000E-01
   182  1.8100000000000E+00  5.3303362468000E-02  3.3079620535000E-01
   183  1.8200000000000E+00  5.4157439398000E-02  3.2189637725000E-01
   184  1.8300000000000E+00  5.4710184759000E-02  3.1263548700000E-01
   185  1.8400000000000E+00  5.4980993662000E-02  3.0306114470000E-01
   186  1.8500000000000E+00  5.4988433749000E-02  2.9321706743000E-01
   187  1.8600000000000E+00  5.4752352501000E-02  2.8315071645000E-01
   188  1.8700000000000E+00  5.4290386264000E-02  2.7290186188000E-01
   189  1.8800000000000E+00  5.3622581484000E-02  2.6251712989000E-01
   190  1.8900000000000E+00  5.2765745460000E-02  2.5203312872000E-01
   191  1.9000000000000E+00  5.1738995364000E-02  2.4149262764000E-01
   192  1.9100000000000E+00  5.0559061151000E-02  2.3093140220000E-01
   193  1.9200000000000E+00  4.9243324037000E-02  2.2038654873000E-01
   194  1.9300000000000E+00  4.7808629385000E-02  2.0989346676000E-01
   195  1.9400000000000E+00  4.6270082170000E-02  1.9948258844000E-01
   196  1.9500000000000E+00  4.4644771911000E-02  1.8918919256000E-01
   197  1.9600000000000E+00  4.2945557913000E-02  1.7903746949000E-01
   198  1.9700000000000E+00  4.1188538620000E-02  1.6905944839000E-01
   199  1.9800000000000E+00  3.9385751427000E-02  1.5927683937000E-01
   200  1.9900000000000E+00  3.7550650237000E-02  1.4971451196000E-01
   201  2.0000000000000E+00  3.5695580955000E-02  1.4039443440000E-01
   202  2.0100000000000E+00  3.3830686043000E-02  1.3133300272000E-01
   203  2.0200000000000E+00  3.1968732334000E-02  1.2255258516000E-01
   204  2.0300000000000E+00  3.0117242804000E-02  1.1406300695000E-01
   205  2.0400000000000E+00  2.8286962477000E-02  1.0588131750000E-01
   206  2.0500000000000E+00  2.6485440798000E-02  9.8017031000000E-02
   207  2.0600000000000E+00  2.4719900744000E-02  9.0478648150000E-02
   208  2.0700000000000E+00  2.2998562743000E-02  8.3276700383000E-02
   209  2.0800000000000E+00  2.1325574198000E-02  7.6412456508000E-02
   210  2.0900000000000E+00  1.9708021909000E-02  6.9893370411000E-02
   211  2.1000000000000E+00  1.8149401682000E-02  6.3718983368000E-02
   212  2.1100000000000E+00  1.6653571823000E-02  5.7889347281000E-02
   213  2.1200000000000E+00  1.5224876905000E-02  5.2405339353000E-02
   214  2.1300000000000E+00  1.3864296921000E-02  4.7260734058000E-02
   215  2.1400000000000E+00  1.2575177575000E-02  4.2453791206000E-02
   216  2.1500000000000E+00  1.1358077089000E-02  3.7977205407000E-02
   217  2.1600000000000E+00  1.0213506380000E-02  3.3823325044000E-02
   218  2.1700000000000E+00  9.1428298964000E-03  2.9985847363000E-02
   219  2.1800000000000E+00  8.1444601344000E-03  2.6453126699000E-02
   220  2.1900000000000E+00  7.2184205639000E-03  2.3215923779000E-02
   221  2.2000000000000E+00  6.3634071587000E-03  2.0262852284000E-02
   222  2.2100000000000E+00  5.5773106743000E-03  1.7581134974000E-02
   223  2.2200000000000E+00  4.8591053494000E-03  1.5158985318000E-02
   224  2.2300000000000E+00  4.2057637698000E-03  1.2982520280000E-02
   225  2.2400000000000E+00  3.6148799395000E-03  1.1038002443000E-02
   226  2.2500000000000E+00  3.0839430961000E-03  9.3114499848000E-03
   227  2.2600000000000E+00  2.6095953872000E-03  7.7888227816000E-03
   228  2.2700000000000E+00  2.1888165990000E-03  6.4550653794000E-03
   229  2.2800000000000E+00  1.8183133593000E-03  5.2961521814000E-03
   230  2.2900000000000E+00  1.4946401563000E-03  4.2982947203000E-03
   231  2.3000000000000E+00  1.2142170296000E-03  3.4454965338000E-03
   232  2.3100000000000E+00  9.7373110812000E-04  2.7256587699000E-03
   233  2.3200000000000E+00  7.6965978525000E-04  2.1250882629000E-03
   234  2.3300000000000E+00  5.9823123312000E-04  1.6286400019000E-03
   235  2.3400000000000E+00  4.5651552072000E-04  1.2264152261000E-03
   236  2.3500000000000E+00  3.4093844283000E-04  9.0507665019000E-04
   237  2.3600000000000E+00  2.4812373325000E-04  6.5231728483000E-04
   238  2.3700000000000E+00  1.7555419545000E-04  4.6004382122000E-04
   239  2.3800000000000E+00  1.1978773111000E-04  3.1601794240000E-04
   240  2.3900000000000E+00  7.8214471246000E-05  2.1164140818000E-04
   241  2.4000000000000E+00  4.8787317837000E-05  1.4079361902000E-04
   242  2.4100000000000E+00  2.8381305447000E-05  9.2916225084000E-05
   243  2.4200000000000E+00  1.5333360065000E-05  6.3433344654000E-05
   244  2.4300000000000E+00  8.1126706347000E-06  4.8345850078000E-05
   245  2.4400000000000E+00  4.0515670046000E-06  4.0539951887000E-05
   246  2.4500000000000E+00  2.4910507773000E-06  3.7419960154000E-05
   247  2.4600000000000E+00  2.4915800214000E-06  3.5738521417000E-05
   248  2.4700000000000E+00  1.5124994315000E-06  2.4620592179000E-05
   249  2.4800000000000E+00  6.2964226834000E-07  1.1820808196000E-05
   250  2.4900000000000E+00  2.5264924102000E-08  5.3650498938000E-07
   251  2.5000000000000E+00 -1.6010953290000E-07 -2.2428200875000E-06
   252  2.5100000000000E+00 -1.3571999494000E-07 -1.9011705637000E-06
   253  2.5200000000000E+00 -6.6059916065000E-09 -9.2536967691000E-08
   254  2.5300000000000E+00  0.0000000000000E+00  0.0000000000000E+00
   255  2.5400000000000E+00  0.0000000000000E+00  0.0000000000000E+00
   256  2.5500000000000E+00  0.0000000000000E+00  0.0000000000000E+00
   257  2.5600000000000E+00  0.0000000000000E+00  0.0000000000000E+00
   258  2.5700000000000E+00  0.0000000000000E+00  0.0000000000000E+00
   259  2.5800000000000E+00  0.0000000000000E+00  0.0000000000000E+00
   260  2.5900000000000E+00  0.0000000000000E+00  0.0000000000000E+00
   261  2.6000000000000E+00  0.0000000000000E+00  0.0000000000000E+00
   262  2.6100000000000E+00  0.0000000000000E+00  0.0000000000000E+00
   263  2.6200000000000E+00  0.0000000000000E+00  0.0000000000000E+00
   264  2.6300000000000E+00  0.0000000000000E+00  0.0000000000000E+00
   265  2.6400000000000E+00  0.0000000000000E+00  0.0000000000000E+00
   266  2.6500000000000E+00  0.0000000000000E+00  0.0000000000000E+00
   267  2.6600000000000E+00  0.0000000000000E+00  0.0000000000000E+00
   268  2.6700000000000E+00  0.0000000000000E+00  0.0000000000000E+00
   269  2.6800000000000E+00  0.0000000000000E+00  0.0000000000000E+00
   270  2.6900000000000E+00  0.0000000000000E+00  0.0000000000000E+00
   271  2.7000000000000E+00  0.0000000000000E+00  0.0000000000000E+00
   272  2.7100000000000E+00  0.0000000000000E+00  0.0000000000000E+00
   273  2.7200000000000E+00  0.0000000000000E+00  0.0000000000000E+00
   274  2.7300000000000E+00  0.0000000000000E+00  0.0000000000000E+00
   275  2.7400000000000E+00  0.0000000000000E+00  0.0000000000000E+00
   276  2.7500000000000E+00  0.0000000000000E+00  0.0000000000000E+00
   277  2.7600000000000E+00  0.0000000000000E+00  0.0000000000000E+00
   278  2.7700000000000E+00  0.0000000000000E+00  0.0000000000000E+00
   279  2.7800000000000E+00  0.0000000000000E+00  0.0000000000000E+00
   280  2.7900000000000E+00  0.0000000000000E+00  0.0000000000000E+00
   281  2.8000000000000E+00  0.0000000000000E+00  0.0000000000000E+00
   282  2.8100000000000E+00  0.0000000000000E+00  0.0000000000000E+00
   283  2.8200000000000E+00  0.0000000000000E+00  0.0000000000000E+00
   284  2.8300000000000E+00  0.0000000000000E+00  0.0000000000000E+00
   285  2.8400000000000E+00  0.0000000000000E+00  0.0000000000000E+00
   286  2.8500000000000E+00  0.0000000000000E+00  0.0000000000000E+00
   287  2.8600000000000E+00  0.0000000000000E+00  0.0000000000000E+00
   288  2.8700000000000E+00  0.0000000000000E+00  0.0000000000000E+00
   289  2.8800000000000E+00  0.0000000000000E+00  0.0000000000000E+00
   290  2.8900000000000E+00  0.0000000000000E+00  0.0000000000000E+00
   291  2.9000000000000E+00  0.0000000000000E+00  0.0000000000000E+00
   292  2.9100000000000E+00  0.0000000000000E+00  0.0000000000000E+00
   293  2.9200000000000E+00  0.0000000000000E+00  0.0000000000000E+00
   294  2.9300000000000E+00  0.0000000000000E+00  0.0000000000000E+00
   295  2.9400000000000E+00  0.0000000000000E+00  0.0000000000000E+00
   296  2.9500000000000E+00  0.0000000000000E+00  0.0000000000000E+00
   297  2.9600000000000E+00  0.0000000000000E+00  0.0000000000000E+00
   298  2.9700000000000E+00  0.0000000000000E+00  0.0000000000000E+00
   299  2.9800000000000E+00  0.0000000000000E+00  0.0000000000000E+00
   300  2.9900000000000E+00  0.0000000000000E+00  0.0000000000000E+00
   301  3.0000000000000E+00  0.0000000000000E+00  0.0000000000000E+00
   302  3.0100000000000E+00  0.0000000000000E+00  0.0000000000000E+00
   303  3.0200000000000E+00  0.0000000000000E+00  0.0000000000000E+00
   304  3.0300000000000E+00  0.0000000000000E+00  0.0000000000000E+00
   305  3.0400000000000E+00  0.0000000000000E+00  0.0000000000000E+00
   306  3.0500000000000E+00  0.0000000000000E+00  0.0000000000000E+00
   307  3.0600000000000E+00  0.0000000000000E+00  0.0000000000000E+00
   308  3.0700000000000E+00  0.0000000000000E+00  0.0000000000000E+00
   309  3.0800000000000E+00  0.0000000000000E+00  0.0000000000000E+00
   310  3.0900000000000E+00  0.0000000000000E+00  0.0000000000000E+00
   311  3.1000000000000E+00  0.0000000000000E+00  0.0000000000000E+00
   312  3.1100000000000E+00  0.0000000000000E+00  0.0000000000000E+00
   313  3.1200000000000E+00  0.0000000000000E+00  0.0000000000000E+00
   314  3.1300000000000E+00  0.0000000000000E+00  0.0000000000000E+00
   315  3.1400000000000E+00  0.0000000000000E+00  0.0000000000000E+00
   316  3.1500000000000E+00  0.0000000000000E+00  0.0000000000000E+00
   317  3.1600000000000E+00  0.0000000000000E+00  0.0000000000000E+00
   318  3.1700000000000E+00  0.0000000000000E+00  0.0000000000000E+00
   319  3.1800000000000E+00  0.0000000000000E+00  0.0000000000000E+00
   320  3.1900000000000E+00  0.0000000000000E+00  0.0000000000000E+00
   321  3.2000000000000E+00  0.0000000000000E+00  0.0000000000000E+00
   322  3.2100000000000E+00  0.0000000000000E+00  0.0000000000000E+00
   323  3.2200000000000E+00  0.0000000000000E+00  0.0000000000000E+00
   324  3.2300000000000E+00  0.0000000000000E+00  0.0000000000000E+00
   325  3.2400000000000E+00  0.0000000000000E+00  0.0000000000000E+00
   326  3.2500000000000E+00  0.0000000000000E+00  0.0000000000000E+00
   327  3.2600000000000E+00  0.0000000000000E+00  0.0000000000000E+00
   328  3.2700000000000E+00  0.0000000000000E+00  0.0000000000000E+00
   329  3.2800000000000E+00  0.0000000000000E+00  0.0000000000000E+00
   330  3.2900000000000E+00  0.0000000000000E+00  0.0000000000000E+00
   331  3.3000000000000E+00  0.0000000000000E+00  0.0000000000000E+00
   332  3.3100000000000E+00  0.0000000000000E+00  0.0000000000000E+00
   333  3.3200000000000E+00  0.0000000000000E+00  0.0000000000000E+00
   334  3.3300000000000E+00  0.0000000000000E+00  0.0000000000000E+00
   335  3.3400000000000E+00  0.0000000000000E+00  0.0000000000000E+00
   336  3.3500000000000E+00  0.0000000000000E+00  0.0000000000000E+00
   337  3.3600000000000E+00  0.0000000000000E+00  0.0000000000000E+00
   338  3.3700000000000E+00  0.0000000000000E+00  0.0000000000000E+00
   339  3.3800000000000E+00  0.0000000000000E+00  0.0000000000000E+00
   340  3.3900000000000E+00  0.0000000000000E+00  0.0000000000000E+00
   341  3.4000000000000E+00  0.0000000000000E+00  0.0000000000000E+00
   342  3.4100000000000E+00  0.0000000000000E+00  0.0000000000000E+00
   343  3.4200000000000E+00  0.0000000000000E+00  0.0000000000000E+00
   344  3.4300000000000E+00  0.0000000000000E+00  0.0000000000000E+00
   345  3.4400000000000E+00  0.0000000000000E+00  0.0000000000000E+00
   346  3.4500000000000E+00  0.0000000000000E+00  0.0000000000000E+00
   347  3.4600000000000E+00  0.0000000000000E+00  0.0000000000000E+00
   348  3.4700000000000E+00  0.0000000000000E+00  0.0000000000000E+00
   349  3.4800000000000E+00  0.0000000000000E+00  0.0000000000000E+00
   350  3.4900000000000E+00  0.0000000000000E+00  0.0000000000000E+00
   351  3.5000000000000E+00  0.0000000000000E+00  0.0000000000000E+00
   352  3.5100000000000E+00  0.0000000000000E+00  0.0000000000000E+00
   353  3.5200000000000E+00  0.0000000000000E+00  0.0000000000000E+00
   354  3.5300000000000E+00  0.0000000000000E+00  0.0000000000000E+00
   355  3.5400000000000E+00  0.0000000000000E+00  0.0000000000000E+00
   356  3.5500000000000E+00  0.0000000000000E+00  0.0000000000000E+00
   357  3.5600000000000E+00  0.0000000000000E+00  0.0000000000000E+00
   358  3.5700000000000E+00  0.0000000000000E+00  0.0000000000000E+00
   359  3.5800000000000E+00  0.0000000000000E+00  0.0000000000000E+00
   360  3.5900000000000E+00  0.0000000000000E+00  0.0000000000000E+00
   361  3.6000000000000E+00  0.0000000000000E+00  0.0000000000000E+00
   362  3.6100000000000E+00  0.0000000000000E+00  0.0000000000000E+00
   363  3.6200000000000E+00  0.0000000000000E+00  0.0000000000000E+00
   364  3.6300000000000E+00  0.0000000000000E+00  0.0000000000000E+00
   365  3.6400000000000E+00  0.0000000000000E+00  0.0000000000000E+00
   366  3.6500000000000E+00  0.0000000000000E+00  0.0000000000000E+00
   367  3.6600000000000E+00  0.0000000000000E+00  0.0000000000000E+00
   368  3.6700000000000E+00  0.0000000000000E+00  0.0000000000000E+00
   369  3.6800000000000E+00  0.0000000000000E+00  0.0000000000000E+00
   370  3.6900000000000E+00  0.0000000000000E+00  0.0000000000000E+00
   371  3.7000000000000E+00  0.0000000000000E+00  0.0000000000000E+00
   372  3.7100000000000E+00  0.0000000000000E+00  0.0000000000000E+00
   373  3.7200000000000E+00  0.0000000000000E+00  0.0000000000000E+00
   374  3.7300000000000E+00  0.0000000000000E+00  0.0000000000000E+00
   375  3.7400000000000E+00  0.0000000000000E+00  0.0000000000000E+00
   376  3.7500000000000E+00  0.0000000000000E+00  0.0000000000000E+00
   377  3.7600000000000E+00  0.0000000000000E+00  0.0000000000000E+00
   378  3.7700000000000E+00  0.0000000000000E+00  0.0000000000000E+00
   379  3.7800000000000E+00  0.0000000000000E+00  0.0000000000000E+00
   380  3.7900000000000E+00  0.0000000000000E+00  0.0000000000000E+00
   381  3.8000000000000E+00  0.0000000000000E+00  0.0000000000000E+00
   382  3.8100000000000E+00  0.0000000000000E+00  0.0000000000000E+00
   383  3.8200000000000E+00  0.0000000000000E+00  0.0000000000000E+00
   384  3.8300000000000E+00  0.0000000000000E+00  0.0000000000000E+00
   385  3.8400000000000E+00  0.0000000000000E+00  0.0000000000000E+00
   386  3.8500000000000E+00  0.0000000000000E+00  0.0000000000000E+00
   387  3.8600000000000E+00  0.0000000000000E+00  0.0000000000000E+00
   388  3.8700000000000E+00  0.0000000000000E+00  0.0000000000000E+00
   389  3.8800000000000E+00  0.0000000000000E+00  0.0000000000000E+00
   390  3.8900000000000E+00  0.0000000000000E+00  0.0000000000000E+00
   391  3.9000000000000E+00  0.0000000000000E+00  0.0000000000000E+00
   392  3.9100000000000E+00  0.0000000000000E+00  0.0000000000000E+00
   393  3.9200000000000E+00  0.0000000000000E+00  0.0000000000000E+00
   394  3.9300000000000E+00  0.0000000000000E+00  0.0000000000000E+00
   395  3.9400000000000E+00  0.0000000000000E+00  0.0000000000000E+00
   396  3.9500000000000E+00  0.0000000000000E+00  0.0000000000000E+00
   397  3.9600000000000E+00  0.0000000000000E+00  0.0000000000000E+00
   398  3.9700000000000E+00  0.0000000000000E+00  0.0000000000000E+00
   399  3.9800000000000E+00  0.0000000000000E+00  0.0000000000000E+00
   400  3.9900000000000E+00  0.0000000000000E+00  0.0000000000000E+00
   401  4.0000000000000E+00  0.0000000000000E+00  0.0000000000000E+00
   402  4.0100000000000E+00  0.0000000000000E+00  0.0000000000000E+00
   403  4.0200000000000E+00  0.0000000000000E+00  0.0000000000000E+00
   404  4.0300000000000E+00  0.0000000000000E+00  0.0000000000000E+00
   405  4.0400000000000E+00  0.0000000000000E+00  0.0000000000000E+00
   406  4.0500000000000E+00  0.0000000000000E+00  0.0000000000000E+00
   407  4.0600000000000E+00  0.0000000000000E+00  0.0000000000000E+00
   408  4.0700000000000E+00  0.0000000000000E+00  0.0000000000000E+00
   409  4.0800000000000E+00  0.0000000000000E+00  0.0000000000000E+00
   410  4.0900000000000E+00  0.0000000000000E+00  0.0000000000000E+00
   411  4.1000000000000E+00  0.0000000000000E+00  0.0000000000000E+00
   412  4.1100000000000E+00  0.0000000000000E+00  0.0000000000000E+00
   413  4.1200000000000E+00  0.0000000000000E+00  0.0000000000000E+00
   414  4.1300000000000E+00  0.0000000000000E+00  0.0000000000000E+00
   415  4.1400000000000E+00  0.0000000000000E+00  0.0000000000000E+00
   416  4.1500000000000E+00  0.0000000000000E+00  0.0000000000000E+00
   417  4.1600000000000E+00  0.0000000000000E+00  0.0000000000000E+00
   418  4.1700000000000E+00  0.0000000000000E+00  0.0000000000000E+00
   419  4.1800000000000E+00  0.0000000000000E+00  0.0000000000000E+00
   420  4.1900000000000E+00  0.0000000000000E+00  0.0000000000000E+00
   421  4.2000000000000E+00  0.0000000000000E+00  0.0000000000000E+00
   422  4.2100000000000E+00  0.0000000000000E+00  0.0000000000000E+00
   423  4.2200000000000E+00  0.0000000000000E+00  0.0000000000000E+00