Hg   ONCVPSP-2.1.1   r_core=    2.34483 2.31703 2.18287 3.23583
    80.0000   20.0000   150105   zatom,zion,pspd
    8   11   3   4   600   0   pspcod,pspxc,lmax,lloc,mmax,r2well
    5.99000000   0.00000000   0.00000000   rchrg fchrg qchrg
    2   2   2   2   0   nproj
    1   1   extension_switch
       0                         4.6921406229000E+00  7.2052164555000E-01
     1  0.0000000000000E+00  0.0000000000000E+00  0.0000000000000E+00
     2  1.0000000000000E-02 -5.9490464723000E-02 -3.1640780339000E-03
     3  2.0000000000000E-02 -1.1887938420000E-01 -6.3415000913000E-03
     4  3.0000000000000E-02 -1.7806540070000E-01 -9.5456673074000E-03
     5  4.0000000000000E-02 -2.3694753123000E-01 -1.2790094336000E-02
     6  5.0000000000000E-02 -2.9542535416000E-01 -1.6088464352000E-02
     7  6.0000000000000E-02 -3.5339919502000E-01 -1.9454681959000E-02
     8  7.0000000000000E-02 -4.1077031113000E-01 -2.2902923323000E-02
     9  8.0000000000000E-02 -4.6744107473000E-01 -2.6447682875000E-02
    10  9.0000000000000E-02 -5.2331515445000E-01 -3.0103815947000E-02
    11  1.0000000000000E-01 -5.7829769469000E-01 -3.3886576725000E-02
    12  1.1000000000000E-01 -6.3229549274000E-01 -3.7811650951000E-02
    13  1.2000000000000E-01 -6.8521717327000E-01 -4.1895182812000E-02
    14  1.3000000000000E-01 -7.3697335987000E-01 -4.6153795534000E-02
    15  1.4000000000000E-01 -7.8747684354000E-01 -5.0604605187000E-02
    16  1.5000000000000E-01 -8.3664274756000E-01 -5.5265227314000E-02
    17  1.6000000000000E-01 -8.8438868871000E-01 -6.0153775981000E-02
    18  1.7000000000000E-01 -9.3063493438000E-01 -6.5288854960000E-02
    19  1.8000000000000E-01 -9.7530455536000E-01 -7.0689540750000E-02
    20  1.9000000000000E-01 -1.0183235741000E+00 -7.6375357250000E-02
    21  2.0000000000000E-01 -1.0596211078000E+00 -8.2366241914000E-02
    22  2.1000000000000E-01 -1.0991295069000E+00 -8.8682503307000E-02
    23  2.2000000000000E-01 -1.1367844872000E+00 -9.5344770044000E-02
    24  2.3000000000000E-01 -1.1725252571000E+00 -1.0237393108000E-01
    25  2.4000000000000E-01 -1.2062946386000E+00 -1.0979106753000E-01
    26  2.5000000000000E-01 -1.2380391814000E+00 -1.1761737622000E-01
    27  2.6000000000000E-01 -1.2677092718000E+00 -1.2587408478000E-01
    28  2.7000000000000E-01 -1.2952592333000E+00 -1.3458235934000E-01
    29  2.8000000000000E-01 -1.3206474208000E+00 -1.4376320443000E-01
    30  2.9000000000000E-01 -1.3438363082000E+00 -1.5343735580000E-01
    31  3.0000000000000E-01 -1.3647925672000E+00 -1.6362516661000E-01
    32  3.1000000000000E-01 -1.3834871391000E+00 -1.7434648743000E-01
    33  3.2000000000000E-01 -1.3998952986000E+00 -1.8562054073000E-01
    34  3.3000000000000E-01 -1.4139967082000E+00 -1.9746579165000E-01
    35  3.4000000000000E-01 -1.4257754677000E+00 -2.0989981042000E-01
    36  3.5000000000000E-01 -1.4352201491000E+00 -2.2293913822000E-01
    37  3.6000000000000E-01 -1.4423238296000E+00 -2.3659914170000E-01
    38  3.7000000000000E-01 -1.4470841094000E+00 -2.5089387517000E-01
    39  3.8000000000000E-01 -1.4495031255000E+00 -2.6583593189000E-01
    40  3.9000000000000E-01 -1.4495875528000E+00 -2.8143630185000E-01
    41  4.0000000000000E-01 -1.4473485973000E+00 -2.9770422866000E-01
    42  4.1000000000000E-01 -1.4428019793000E+00 -3.1464706680000E-01
    43  4.2000000000000E-01 -1.4359679079000E+00 -3.3227014206000E-01
    44  4.3000000000000E-01 -1.4268710448000E+00 -3.5057661527000E-01
    45  4.4000000000000E-01 -1.4155404593000E+00 -3.6956735055000E-01
    46  4.5000000000000E-01 -1.4020095726000E+00 -3.8924078875000E-01
    47  4.6000000000000E-01 -1.3863160935000E+00 -4.0959282717000E-01
    48  4.7000000000000E-01 -1.3685019435000E+00 -4.3061670658000E-01
    49  4.8000000000000E-01 -1.3486131726000E+00 -4.5230290651000E-01
    50  4.9000000000000E-01 -1.3266998675000E+00 -4.7463905494000E-01
    51  5.0000000000000E-01 -1.3028160441000E+00 -4.9760982721000E-01
    52  5.1000000000000E-01 -1.2770195367000E+00 -5.2119688277000E-01
    53  5.2000000000000E-01 -1.2493718813000E+00 -5.4537880741000E-01
    54  5.3000000000000E-01 -1.2199381748000E+00 -5.7013104239000E-01
    55  5.4000000000000E-01 -1.1887869397000E+00 -5.9542585957000E-01
    56  5.5000000000000E-01 -1.1559899850000E+00 -6.2123234171000E-01
    57  5.6000000000000E-01 -1.1216222222000E+00 -6.4751634711000E-01
    58  5.7000000000000E-01 -1.0857615434000E+00 -6.7424055034000E-01
    59  5.8000000000000E-01 -1.0484885917000E+00 -7.0136441942000E-01
    60  5.9000000000000E-01 -1.0098866443000E+00 -7.2884429038000E-01
    61  6.0000000000000E-01 -9.7004136330000E-01 -7.5663338591000E-01
    62  6.1000000000000E-01 -9.2904064447000E-01 -7.8468190117000E-01
    63  6.2000000000000E-01 -8.8697441274000E-01 -8.1293708164000E-01
    64  6.3000000000000E-01 -8.4393436893000E-01 -8.4134331634000E-01
    65  6.4000000000000E-01 -8.0001385190000E-01 -8.6984226153000E-01
    66  6.5000000000000E-01 -7.5530757125000E-01 -8.9837296636000E-01
    67  6.6000000000000E-01 -7.0991136958000E-01 -9.2687202638000E-01
    68  6.7000000000000E-01 -6.6392204558000E-01 -9.5527374232000E-01
    69  6.8000000000000E-01 -6.1743714282000E-01 -9.8351028613000E-01
    70  6.9000000000000E-01 -5.7055460487000E-01 -1.0115119277000E+00
    71  7.0000000000000E-01 -5.2337264358000E-01 -1.0392072166000E+00
    72  7.1000000000000E-01 -4.7598947976000E-01 -1.0665232076000E+00
    73  7.2000000000000E-01 -4.2850310769000E-01 -1.0933856932000E+00
    74  7.3000000000000E-01 -3.8101108042000E-01 -1.1197194355000E+00
    75  7.4000000000000E-01 -3.3361017409000E-01 -1.1454484815000E+00
    76  7.5000000000000E-01 -2.8639625883000E-01 -1.1704963737000E+00
    77  7.6000000000000E-01 -2.3946403068000E-01 -1.1947864447000E+00
    78  7.7000000000000E-01 -1.9290677986000E-01 -1.2182421025000E+00
    79  7.8000000000000E-01 -1.4681616228000E-01 -1.2407871233000E+00
    80  7.9000000000000E-01 -1.0128197480000E-01 -1.2623459500000E+00
    81  8.0000000000000E-01 -5.6391935096000E-02 -1.2828439944000E+00
    82  8.1000000000000E-01 -1.2231466670000E-02 -1.3022079438000E+00
    83  8.2000000000000E-01  3.1116510224000E-02 -1.3203660680000E+00
    84  8.3000000000000E-01  7.3571781186000E-02 -1.3372485278000E+00
    85  8.4000000000000E-01  1.1505703312000E-01 -1.3527876818000E+00
    86  8.5000000000000E-01  1.5549804194000E-01 -1.3669183907000E+00
    87  8.6000000000000E-01  1.9482385187000E-01 -1.3795783181000E+00
    88  8.7000000000000E-01  2.3296694579000E-01 -1.3907082253000E+00
    89  8.8000000000000E-01  2.6986340608000E-01 -1.4002522595000E+00
    90  8.9000000000000E-01  3.0545306528000E-01 -1.4081582342000E+00
    91  9.0000000000000E-01  3.3967964609000E-01 -1.4143778986000E+00
    92  9.1000000000000E-01  3.7249089022000E-01 -1.4188671967000E+00
    93  9.2000000000000E-01  4.0383867541000E-01 -1.4215865133000E+00
    94  9.3000000000000E-01  4.3367912039000E-01 -1.4225009059000E+00
    95  9.4000000000000E-01  4.6197267704000E-01 -1.4215803207000E+00
    96  9.5000000000000E-01  4.8868420957000E-01 -1.4187997922000E+00
    97  9.6000000000000E-01  5.1378306032000E-01 -1.4141396240000E+00
    98  9.7000000000000E-01  5.3724310185000E-01 -1.4075855507000E+00
    99  9.8000000000000E-01  5.5904266205000E-01 -1.3991287110000E+00
   100  9.9000000000000E-01  5.7916489466000E-01 -1.3887662735000E+00
   101  1.0000000000000E+00  5.9759746325000E-01 -1.3765010682000E+00
   102  1.0100000000000E+00  6.1433263296000E-01 -1.3623417967000E+00
   103  1.0200000000000E+00  6.2936725496000E-01 -1.3463030882000E+00
   104  1.0300000000000E+00  6.4270273378000E-01 -1.3284055257000E+00
   105  1.0400000000000E+00  6.5434486718000E-01 -1.3086754568000E+00
   106  1.0500000000000E+00  6.6430414078000E-01 -1.2871455581000E+00
   107  1.0600000000000E+00  6.7259535705000E-01 -1.2638543144000E+00
   108  1.0700000000000E+00  6.7923757845000E-01 -1.2388459890000E+00
   109  1.0800000000000E+00  6.8425405490000E-01 -1.2121705718000E+00
   110  1.0900000000000E+00  6.8767201049000E-01 -1.1838834541000E+00
   111  1.1000000000000E+00  6.8952289925000E-01 -1.1540460156000E+00
   112  1.1100000000000E+00  6.8984185913000E-01 -1.1227247016000E+00
   113  1.1200000000000E+00  6.8866768252000E-01 -1.0899910390000E+00
   114  1.1300000000000E+00  6.8604264161000E-01 -1.0559213436000E+00
   115  1.1400000000000E+00  6.8201247712000E-01 -1.0205968846000E+00
   116  1.1500000000000E+00  6.7662601949000E-01 -9.8410320603000E-01
   117  1.1600000000000E+00  6.6993504112000E-01 -9.4652989782000E-01
   118  1.1700000000000E+00  6.6199419003000E-01 -9.0797044114000E-01
   119  1.1800000000000E+00  6.5286057707000E-01 -8.6852182313000E-01
   120  1.1900000000000E+00  6.4259363983000E-01 -8.2828405807000E-01
   121  1.2000000000000E+00  6.3125508024000E-01 -7.8736011173000E-01
   122  1.2100000000000E+00  6.1890845504000E-01 -7.4585535921000E-01
   123  1.2200000000000E+00  6.0561877095000E-01 -7.0387689105000E-01
   124  1.2300000000000E+00  5.9145268186000E-01 -6.6153369523000E-01
   125  1.2400000000000E+00  5.7647821410000E-01 -6.1893627437000E-01
   126  1.2500000000000E+00  5.6076370590000E-01 -5.7619499085000E-01
   127  1.2600000000000E+00  5.4437860283000E-01 -5.3342113808000E-01
   128  1.2700000000000E+00  5.2739319641000E-01 -4.9072657378000E-01
   129  1.2800000000000E+00  5.0987689092000E-01 -4.4822093273000E-01
   130  1.2900000000000E+00  4.9189979893000E-01 -4.0601402830000E-01
   131  1.3000000000000E+00  4.7353206607000E-01 -3.6421481591000E-01
   132  1.3100000000000E+00  4.5484195652000E-01 -3.2292818247000E-01
   133  1.3200000000000E+00  4.3589824720000E-01 -2.8225878709000E-01
   134  1.3300000000000E+00  4.1676833414000E-01 -2.4230796150000E-01
   135  1.3400000000000E+00  3.9751730715000E-01 -2.0317202798000E-01
   136  1.3500000000000E+00  3.7821077289000E-01 -1.6494704440000E-01
   137  1.3600000000000E+00  3.5891062597000E-01 -1.2772160748000E-01
   138  1.3700000000000E+00  3.3967727597000E-01 -9.1580522455000E-02
   139  1.3800000000000E+00  3.2057073713000E-01 -5.6606742216000E-02
   140  1.3900000000000E+00  3.0164538381000E-01 -2.2872165772000E-02
   141  1.4000000000000E+00  2.8295605472000E-01  9.5517646797000E-03
   142  1.4100000000000E+00  2.6455319459000E-01  4.0602566382000E-02
   143  1.4200000000000E+00  2.4648383870000E-01  7.0225114369000E-02
   144  1.4300000000000E+00  2.2879475485000E-01  9.8366002762000E-02
   145  1.4400000000000E+00  2.1152497656000E-01  1.2498697120000E-01
   146  1.4500000000000E+00  1.9471448359000E-01  1.5004937006000E-01
   147  1.4600000000000E+00  1.7839652730000E-01  1.7352797624000E-01
   148  1.4700000000000E+00  1.6260187777000E-01  1.9540341638000E-01
   149  1.4800000000000E+00  1.4735847771000E-01  2.1566273816000E-01
   150  1.4900000000000E+00  1.3268709780000E-01  2.3430745187000E-01
   151  1.5000000000000E+00  1.1860981205000E-01  2.5133796521000E-01
   152  1.5100000000000E+00  1.0513795463000E-01  2.6677581437000E-01
   153  1.5200000000000E+00  9.2284787815000E-02  2.8064029246000E-01
   154  1.5300000000000E+00  8.0054357848000E-02  2.9296932626000E-01
   155  1.5400000000000E+00  6.8450501308000E-02  3.0380113416000E-01
   156  1.5500000000000E+00  5.7472222443000E-02  3.1318250221000E-01
   157  1.5600000000000E+00  4.7117152606000E-02  3.2115987940000E-01
   158  1.5700000000000E+00  3.7381373395000E-02  3.2778180751000E-01
   159  1.5800000000000E+00  2.8258345637000E-02  3.3309734408000E-01
   160  1.5900000000000E+00  1.9741040303000E-02  3.3715769692000E-01
   161  1.6000000000000E+00  1.1819378460000E-02  3.4001388852000E-01
   162  1.6100000000000E+00  4.4833434358000E-03  3.4171963859000E-01
   163  1.6200000000000E+00 -2.2801221391000E-03  3.4232745423000E-01
   164  1.6300000000000E+00 -8.4838101143000E-03  3.4189319379000E-01
   165  1.6400000000000E+00 -1.4143184906000E-02  3.4047040320000E-01
   166  1.6500000000000E+00 -1.9273625838000E-02  3.3811634587000E-01
   167  1.6600000000000E+00 -2.3892441684000E-02  3.3488530677000E-01
   168  1.6700000000000E+00 -2.8017215857000E-02  3.3083536864000E-01
   169  1.6800000000000E+00 -3.1666728209000E-02  3.2602091016000E-01
   170  1.6900000000000E+00 -3.4860335699000E-02  3.2050034807000E-01
   171  1.7000000000000E+00 -3.7617884737000E-02  3.1432743903000E-01
   172  1.7100000000000E+00 -3.9960114802000E-02  3.0756048359000E-01
   173  1.7200000000000E+00 -4.1907501350000E-02  3.0025183226000E-01
   174  1.7300000000000E+00 -4.3481817584000E-02  2.9245925366000E-01
   175  1.7400000000000E+00 -4.4703731803000E-02  2.8423296034000E-01
   176  1.7500000000000E+00 -4.5595704604000E-02  2.7562963564000E-01
   177  1.7600000000000E+00 -4.6178264344000E-02  2.6669700808000E-01
   178  1.7700000000000E+00 -4.6474015242000E-02  2.5748942252000E-01
   179  1.7800000000000E+00 -4.6503228734000E-02  2.4805235567000E-01
   180  1.7900000000000E+00 -4.6288115449000E-02  2.3843675223000E-01
   181  1.8000000000000E+00 -4.5848567287000E-02  2.2868577773000E-01
   182  1.8100000000000E+00 -4.5205868003000E-02  2.1884601113000E-01
   183  1.8200000000000E+00 -4.4379483560000E-02  2.0895837492000E-01
   184  1.8300000000000E+00 -4.3389236502000E-02  1.9906413358000E-01
   185  1.8400000000000E+00 -4.2254177049000E-02  1.8920211423000E-01
   186  1.8500000000000E+00 -4.0992162591000E-02  1.7940741098000E-01
   187  1.8600000000000E+00 -3.9621860678000E-02  1.6971690612000E-01
   188  1.8700000000000E+00 -3.8158736411000E-02  1.6015886687000E-01
   189  1.8800000000000E+00 -3.6621081425000E-02  1.5076827743000E-01
   190  1.8900000000000E+00 -3.5022058029000E-02  1.4156715237000E-01
   191  1.9000000000000E+00 -3.3378358392000E-02  1.3258568476000E-01
   192  1.9100000000000E+00 -3.1702088189000E-02  1.2384286146000E-01
   193  1.9200000000000E+00 -3.0007145979000E-02  1.1536149582000E-01
   194  1.9300000000000E+00 -2.8305281053000E-02  1.0715919569000E-01
   195  1.9400000000000E+00 -2.6607122748000E-02  9.9250648810000E-02
   196  1.9500000000000E+00 -2.4924202983000E-02  9.1652323459000E-02
   197  1.9600000000000E+00 -2.3263945008000E-02  8.4371292676000E-02
   198  1.9700000000000E+00 -2.1637155472000E-02  7.7421695879000E-02
   199  1.9800000000000E+00 -2.0049274202000E-02  7.0805929071000E-02
   200  1.9900000000000E+00 -1.8508246344000E-02  6.4531360790000E-02
   201  2.0000000000000E+00 -1.7019581951000E-02  5.8600117577000E-02
   202  2.0100000000000E+00 -1.5587741232000E-02  5.3011867884000E-02
   203  2.0200000000000E+00 -1.4218328495000E-02  4.7768331630000E-02
   204  2.0300000000000E+00 -1.2913024639000E-02  4.2863347301000E-02
   205  2.0400000000000E+00 -1.1676127587000E-02  3.8295412470000E-02
   206  2.0500000000000E+00 -1.0508516459000E-02  3.4056589954000E-02
   207  2.0600000000000E+00 -9.4116916762000E-03  3.0139716064000E-02
   208  2.0700000000000E+00 -8.3868879915000E-03  2.6537009171000E-02
   209  2.0800000000000E+00 -7.4330832172000E-03  2.3236775005000E-02
   210  2.0900000000000E+00 -6.5510425867000E-03  2.0229699557000E-02
   211  2.1000000000000E+00 -5.7387708192000E-03  1.7502514124000E-02
   212  2.1100000000000E+00 -4.9950567847000E-03  1.5042573841000E-02
   213  2.1200000000000E+00 -4.3183060560000E-03  1.2836691163000E-02
   214  2.1300000000000E+00 -3.7056479192000E-03  1.0870309621000E-02
   215  2.1400000000000E+00 -3.1550905435000E-03  9.1288793944000E-03
   216  2.1500000000000E+00 -2.6633455008000E-03  7.5977579620000E-03
   217  2.1600000000000E+00 -2.2273133759000E-03  6.2616384173000E-03
   218  2.1700000000000E+00 -1.8438500730000E-03  5.1050639619000E-03
   219  2.1800000000000E+00 -1.5093402972000E-03  4.1138435845000E-03
   220  2.1900000000000E+00 -1.2201972089000E-03  3.2716573090000E-03
   221  2.2000000000000E+00 -9.7287742968000E-04  2.5648296790000E-03
   222  2.2100000000000E+00 -7.6373987698000E-04  1.9794670004000E-03
   223  2.2200000000000E+00 -5.8885061090000E-04  1.4995163588000E-03
   224  2.2300000000000E+00 -4.4502913029000E-04  1.1144171765000E-03
   225  2.2400000000000E+00 -3.2847556097000E-04  8.1001570864000E-04
   226  2.2500000000000E+00 -2.3573919578000E-04  5.7406469736000E-04
   227  2.2600000000000E+00 -1.6398423218000E-04  3.9758878699000E-04
   228  2.2700000000000E+00 -1.0942788707000E-04  2.6723552978000E-04
   229  2.2800000000000E+00 -6.9651192763000E-05  1.7581918121000E-04
   230  2.2900000000000E+00 -4.2131916531000E-05  1.1577659239000E-04
   231  2.3000000000000E+00 -2.3443107898000E-05  7.5782762568000E-05
   232  2.3100000000000E+00 -1.2326513687000E-05  5.3572934965000E-05
   233  2.3200000000000E+00 -6.4236439689000E-06  4.2965201703000E-05
   234  2.3300000000000E+00 -3.4945890569000E-06  3.8012997252000E-05
   235  2.3400000000000E+00 -2.8679947258000E-06  3.6121547261000E-05
   236  2.3500000000000E+00 -2.2609525627000E-06  2.8788296656000E-05
   237  2.3600000000000E+00 -1.0670372426000E-06  1.5534902595000E-05
   238  2.3700000000000E+00 -1.9206941323000E-07  3.1252578649000E-06
   239  2.3800000000000E+00  1.6896647526000E-07 -1.9837599101000E-06
   240  2.3900000000000E+00  1.7569456023000E-07 -2.0627513503000E-06
   241  2.4000000000000E+00  2.6559932011000E-08 -3.1182829763000E-07
   242  2.4100000000000E+00  0.0000000000000E+00  0.0000000000000E+00
   243  2.4200000000000E+00  0.0000000000000E+00  0.0000000000000E+00
   244  2.4300000000000E+00  0.0000000000000E+00  0.0000000000000E+00
   245  2.4400000000000E+00  0.0000000000000E+00  0.0000000000000E+00
   246  2.4500000000000E+00  0.0000000000000E+00  0.0000000000000E+00
   247  2.4600000000000E+00  0.0000000000000E+00  0.0000000000000E+00
   248  2.4700000000000E+00  0.0000000000000E+00  0.0000000000000E+00
   249  2.4800000000000E+00  0.0000000000000E+00  0.0000000000000E+00
   250  2.4900000000000E+00  0.0000000000000E+00  0.0000000000000E+00
   251  2.5000000000000E+00  0.0000000000000E+00  0.0000000000000E+00
   252  2.5100000000000E+00  0.0000000000000E+00  0.0000000000000E+00
   253  2.5200000000000E+00  0.0000000000000E+00  0.0000000000000E+00
   254  2.5300000000000E+00  0.0000000000000E+00  0.0000000000000E+00
   255  2.5400000000000E+00  0.0000000000000E+00  0.0000000000000E+00
   256  2.5500000000000E+00  0.0000000000000E+00  0.0000000000000E+00
   257  2.5600000000000E+00  0.0000000000000E+00  0.0000000000000E+00
   258  2.5700000000000E+00  0.0000000000000E+00  0.0000000000000E+00
   259  2.5800000000000E+00  0.0000000000000E+00  0.0000000000000E+00
   260  2.5900000000000E+00  0.0000000000000E+00  0.0000000000000E+00
   261  2.6000000000000E+00  0.0000000000000E+00  0.0000000000000E+00
   262  2.6100000000000E+00  0.0000000000000E+00  0.0000000000000E+00
   263  2.6200000000000E+00  0.0000000000000E+00  0.0000000000000E+00
   264  2.6300000000000E+00  0.0000000000000E+00  0.0000000000000E+00
   265  2.6400000000000E+00  0.0000000000000E+00  0.0000000000000E+00
   266  2.6500000000000E+00  0.0000000000000E+00  0.0000000000000E+00
   267  2.6600000000000E+00  0.0000000000000E+00  0.0000000000000E+00
   268  2.6700000000000E+00  0.0000000000000E+00  0.0000000000000E+00
   269  2.6800000000000E+00  0.0000000000000E+00  0.0000000000000E+00
   270  2.6900000000000E+00  0.0000000000000E+00  0.0000000000000E+00
   271  2.7000000000000E+00  0.0000000000000E+00  0.0000000000000E+00
   272  2.7100000000000E+00  0.0000000000000E+00  0.0000000000000E+00
   273  2.7200000000000E+00  0.0000000000000E+00  0.0000000000000E+00
   274  2.7300000000000E+00  0.0000000000000E+00  0.0000000000000E+00
   275  2.7400000000000E+00  0.0000000000000E+00  0.0000000000000E+00
   276  2.7500000000000E+00  0.0000000000000E+00  0.0000000000000E+00
   277  2.7600000000000E+00  0.0000000000000E+00  0.0000000000000E+00
   278  2.7700000000000E+00  0.0000000000000E+00  0.0000000000000E+00
   279  2.7800000000000E+00  0.0000000000000E+00  0.0000000000000E+00
   280  2.7900000000000E+00  0.0000000000000E+00  0.0000000000000E+00
   281  2.8000000000000E+00  0.0000000000000E+00  0.0000000000000E+00
   282  2.8100000000000E+00  0.0000000000000E+00  0.0000000000000E+00
   283  2.8200000000000E+00  0.0000000000000E+00  0.0000000000000E+00
   284  2.8300000000000E+00  0.0000000000000E+00  0.0000000000000E+00
   285  2.8400000000000E+00  0.0000000000000E+00  0.0000000000000E+00
   286  2.8500000000000E+00  0.0000000000000E+00  0.0000000000000E+00
   287  2.8600000000000E+00  0.0000000000000E+00  0.0000000000000E+00
   288  2.8700000000000E+00  0.0000000000000E+00  0.0000000000000E+00
   289  2.8800000000000E+00  0.0000000000000E+00  0.0000000000000E+00
   290  2.8900000000000E+00  0.0000000000000E+00  0.0000000000000E+00
   291  2.9000000000000E+00  0.0000000000000E+00  0.0000000000000E+00
   292  2.9100000000000E+00  0.0000000000000E+00  0.0000000000000E+00
   293  2.9200000000000E+00  0.0000000000000E+00  0.0000000000000E+00
   294  2.9300000000000E+00  0.0000000000000E+00  0.0000000000000E+00
   295  2.9400000000000E+00  0.0000000000000E+00  0.0000000000000E+00
   296  2.9500000000000E+00  0.0000000000000E+00  0.0000000000000E+00
   297  2.9600000000000E+00  0.0000000000000E+00  0.0000000000000E+00
   298  2.9700000000000E+00  0.0000000000000E+00  0.0000000000000E+00
   299  2.9800000000000E+00  0.0000000000000E+00  0.0000000000000E+00
   300  2.9900000000000E+00  0.0000000000000E+00  0.0000000000000E+00
   301  3.0000000000000E+00  0.0000000000000E+00  0.0000000000000E+00
   302  3.0100000000000E+00  0.0000000000000E+00  0.0000000000000E+00
   303  3.0200000000000E+00  0.0000000000000E+00  0.0000000000000E+00
   304  3.0300000000000E+00  0.0000000000000E+00  0.0000000000000E+00
   305  3.0400000000000E+00  0.0000000000000E+00  0.0000000000000E+00
   306  3.0500000000000E+00  0.0000000000000E+00  0.0000000000000E+00
   307  3.0600000000000E+00  0.0000000000000E+00  0.0000000000000E+00
   308  3.0700000000000E+00  0.0000000000000E+00  0.0000000000000E+00
   309  3.0800000000000E+00  0.0000000000000E+00  0.0000000000000E+00
   310  3.0900000000000E+00  0.0000000000000E+00  0.0000000000000E+00
   311  3.1000000000000E+00  0.0000000000000E+00  0.0000000000000E+00
   312  3.1100000000000E+00  0.0000000000000E+00  0.0000000000000E+00
   313  3.1200000000000E+00  0.0000000000000E+00  0.0000000000000E+00
   314  3.1300000000000E+00  0.0000000000000E+00  0.0000000000000E+00
   315  3.1400000000000E+00  0.0000000000000E+00  0.0000000000000E+00
   316  3.1500000000000E+00  0.0000000000000E+00  0.0000000000000E+00
   317  3.1600000000000E+00  0.0000000000000E+00  0.0000000000000E+00
   318  3.1700000000000E+00  0.0000000000000E+00  0.0000000000000E+00
   319  3.1800000000000E+00  0.0000000000000E+00  0.0000000000000E+00
   320  3.1900000000000E+00  0.0000000000000E+00  0.0000000000000E+00
   321  3.2000000000000E+00  0.0000000000000E+00  0.0000000000000E+00
   322  3.2100000000000E+00  0.0000000000000E+00  0.0000000000000E+00
   323  3.2200000000000E+00  0.0000000000000E+00  0.0000000000000E+00
   324  3.2300000000000E+00  0.0000000000000E+00  0.0000000000000E+00
   325  3.2400000000000E+00  0.0000000000000E+00  0.0000000000000E+00
   326  3.2500000000000E+00  0.0000000000000E+00  0.0000000000000E+00
   327  3.2600000000000E+00  0.0000000000000E+00  0.0000000000000E+00
   328  3.2700000000000E+00  0.0000000000000E+00  0.0000000000000E+00
   329  3.2800000000000E+00  0.0000000000000E+00  0.0000000000000E+00
   330  3.2900000000000E+00  0.0000000000000E+00  0.0000000000000E+00
   331  3.3000000000000E+00  0.0000000000000E+00  0.0000000000000E+00
   332  3.3100000000000E+00  0.0000000000000E+00  0.0000000000000E+00
   333  3.3200000000000E+00  0.0000000000000E+00  0.0000000000000E+00
   334  3.3300000000000E+00  0.0000000000000E+00  0.0000000000000E+00
   335  3.3400000000000E+00  0.0000000000000E+00  0.0000000000000E+00
   336  3.3500000000000E+00  0.0000000000000E+00  0.0000000000000E+00
   337  3.3600000000000E+00  0.0000000000000E+00  0.0000000000000E+00
   338  3.3700000000000E+00  0.0000000000000E+00  0.0000000000000E+00
   339  3.3800000000000E+00  0.0000000000000E+00  0.0000000000000E+00
   340  3.3900000000000E+00  0.0000000000000E+00  0.0000000000000E+00
   341  3.4000000000000E+00  0.0000000000000E+00  0.0000000000000E+00
   342  3.4100000000000E+00  0.0000000000000E+00  0.0000000000000E+00
   343  3.4200000000000E+00  0.0000000000000E+00  0.0000000000000E+00
   344  3.4300000000000E+00  0.0000000000000E+00  0.0000000000000E+00
   345  3.4400000000000E+00  0.0000000000000E+00  0.0000000000000E+00
   346  3.4500000000000E+00  0.0000000000000E+00  0.0000000000000E+00
   347  3.4600000000000E+00  0.0000000000000E+00  0.0000000000000E+00
   348  3.4700000000000E+00  0.0000000000000E+00  0.0000000000000E+00
   349  3.4800000000000E+00  0.0000000000000E+00  0.0000000000000E+00
   350  3.4900000000000E+00  0.0000000000000E+00  0.0000000000000E+00
   351  3.5000000000000E+00  0.0000000000000E+00  0.0000000000000E+00
   352  3.5100000000000E+00  0.0000000000000E+00  0.0000000000000E+00
   353  3.5200000000000E+00  0.0000000000000E+00  0.0000000000000E+00
   354  3.5300000000000E+00  0.0000000000000E+00  0.0000000000000E+00
   355  3.5400000000000E+00  0.0000000000000E+00  0.0000000000000E+00
   356  3.5500000000000E+00  0.0000000000000E+00  0.0000000000000E+00
   357  3.5600000000000E+00  0.0000000000000E+00  0.0000000000000E+00
   358  3.5700000000000E+00  0.0000000000000E+00  0.0000000000000E+00
   359  3.5800000000000E+00  0.0000000000000E+00  0.0000000000000E+00
   360  3.5900000000000E+00  0.0000000000000E+00  0.0000000000000E+00
   361  3.6000000000000E+00  0.0000000000000E+00  0.0000000000000E+00
   362  3.6100000000000E+00  0.0000000000000E+00  0.0000000000000E+00
   363  3.6200000000000E+00  0.0000000000000E+00  0.0000000000000E+00
   364  3.6300000000000E+00  0.0000000000000E+00  0.0000000000000E+00
   365  3.6400000000000E+00  0.0000000000000E+00  0.0000000000000E+00
   366  3.6500000000000E+00  0.0000000000000E+00  0.0000000000000E+00
   367  3.6600000000000E+00  0.0000000000000E+00  0.0000000000000E+00
   368  3.6700000000000E+00  0.0000000000000E+00  0.0000000000000E+00
   369  3.6800000000000E+00  0.0000000000000E+00  0.0000000000000E+00
   370  3.6900000000000E+00  0.0000000000000E+00  0.0000000000000E+00
   371  3.7000000000000E+00  0.0000000000000E+00  0.0000000000000E+00
   372  3.7100000000000E+00  0.0000000000000E+00  0.0000000000000E+00
   373  3.7200000000000E+00  0.0000000000000E+00  0.0000000000000E+00
   374  3.7300000000000E+00  0.0000000000000E+00  0.0000000000000E+00
   375  3.7400000000000E+00  0.0000000000000E+00  0.0000000000000E+00
   376  3.7500000000000E+00  0.0000000000000E+00  0.0000000000000E+00
   377  3.7600000000000E+00  0.0000000000000E+00  0.0000000000000E+00
   378  3.7700000000000E+00  0.0000000000000E+00  0.0000000000000E+00
   379  3.7800000000000E+00  0.0000000000000E+00  0.0000000000000E+00
   380  3.7900000000000E+00  0.0000000000000E+00  0.0000000000000E+00
   381  3.8000000000000E+00  0.0000000000000E+00  0.0000000000000E+00
   382  3.8100000000000E+00  0.0000000000000E+00  0.0000000000000E+00
   383  3.8200000000000E+00  0.0000000000000E+00  0.0000000000000E+00
   384  3.8300000000000E+00  0.0000000000000E+00  0.0000000000000E+00
   385  3.8400000000000E+00  0.0000000000000E+00  0.0000000000000E+00
   386  3.8500000000000E+00  0.0000000000000E+00  0.0000000000000E+00
   387  3.8600000000000E+00  0.0000000000000E+00  0.0000000000000E+00
   388  3.8700000000000E+00  0.0000000000000E+00  0.0000000000000E+00
   389  3.8800000000000E+00  0.0000000000000E+00  0.0000000000000E+00
   390  3.8900000000000E+00  0.0000000000000E+00  0.0000000000000E+00
   391  3.9000000000000E+00  0.0000000000000E+00  0.0000000000000E+00
   392  3.9100000000000E+00  0.0000000000000E+00  0.0000000000000E+00
   393  3.9200000000000E+00  0.0000000000000E+00  0.0000000000000E+00
   394  3.9300000000000E+00  0.0000000000000E+00  0.0000000000000E+00
   395  3.9400000000000E+00  0.0000000000000E+00  0.0000000000000E+00
   396  3.9500000000000E+00  0.0000000000000E+00  0.0000000000000E+00
   397  3.9600000000000E+00  0.0000000000000E+00  0.0000000000000E+00
   398  3.9700000000000E+00  0.0000000000000E+00  0.0000000000000E+00
   399  3.9800000000000E+00  0.0000000000000E+00  0.0000000000000E+00
   400  3.9900000000000E+00  0.0000000000000E+00  0.0000000000000E+00
   401  4.0000000000000E+00  0.0000000000000E+00  0.0000000000000E+00
   402  4.0100000000000E+00  0.0000000000000E+00  0.0000000000000E+00
   403  4.0200000000000E+00  0.0000000000000E+00  0.0000000000000E+00
   404  4.0300000000000E+00  0.0000000000000E+00  0.0000000000000E+00
   405  4.0400000000000E+00  0.0000000000000E+00  0.0000000000000E+00
   406  4.0500000000000E+00  0.0000000000000E+00  0.0000000000000E+00
   407  4.0600000000000E+00  0.0000000000000E+00  0.0000000000000E+00
   408  4.0700000000000E+00  0.0000000000000E+00  0.0000000000000E+00
   409  4.0800000000000E+00  0.0000000000000E+00  0.0000000000000E+00
   410  4.0900000000000E+00  0.0000000000000E+00  0.0000000000000E+00
   411  4.1000000000000E+00  0.0000000000000E+00  0.0000000000000E+00
   412  4.1100000000000E+00  0.0000000000000E+00  0.0000000000000E+00
   413  4.1200000000000E+00  0.0000000000000E+00  0.0000000000000E+00
   414  4.1300000000000E+00  0.0000000000000E+00  0.0000000000000E+00
   415  4.1400000000000E+00  0.0000000000000E+00  0.0000000000000E+00
   416  4.1500000000000E+00  0.0000000000000E+00  0.0000000000000E+00
   417  4.1600000000000E+00  0.0000000000000E+00  0.0000000000000E+00
   418  4.1700000000000E+00  0.0000000000000E+00  0.0000000000000E+00
   419  4.1800000000000E+00  0.0000000000000E+00  0.0000000000000E+00
   420  4.1900000000000E+00  0.0000000000000E+00  0.0000000000000E+00
   421  4.2000000000000E+00  0.0000000000000E+00  0.0000000000000E+00
   422  4.2100000000000E+00  0.0000000000000E+00  0.0000000000000E+00
   423  4.2200000000000E+00  0.0000000000000E+00  0.0000000000000E+00