Tl   ONCVPSP-2.1.1   r_core=    3.31232 3.64398 3.15798 3.35206
    81.0000   13.0000   150105   zatom,zion,pspd
    8   11   3   4   600   0   pspcod,pspxc,lmax,lloc,mmax,r2well
    5.99000000   0.00000000   0.00000000   rchrg fchrg qchrg
    2   2   2   2   0   nproj
    1   1   extension_switch
       0                         3.1403113187500E+00  2.4207553831500E-01
     1  0.0000000000000E+00  0.0000000000000E+00  0.0000000000000E+00
     2  1.0000000000000E-02  1.5201103444000E-02 -3.0784107567000E-02
     3  2.0000000000000E-02  3.0407067106000E-02 -6.1501725539000E-02
     4  3.0000000000000E-02  4.5622724940000E-02 -9.2086515292000E-02
     5  4.0000000000000E-02  6.0852858437000E-02 -1.2247243980000E-01
     6  5.0000000000000E-02  7.6102170560000E-02 -1.5259391356000E-01
     7  6.0000000000000E-02  9.1375259876000E-02 -1.8238595156000E-01
     8  7.0000000000000E-02  1.0667659496000E-01 -2.1178431683000E-01
     9  8.0000000000000E-02  1.2201048912000E-01 -2.4072566631000E-01
    10  9.0000000000000E-02  1.3738107553000E-01 -2.6914769474000E-01
    11  1.0000000000000E-01  1.5279228279000E-01 -2.9698927618000E-01
    12  1.1000000000000E-01  1.6824781104000E-01 -3.2419060284000E-01
    13  1.2000000000000E-01  1.8375110866000E-01 -3.5069332104000E-01
    14  1.3000000000000E-01  1.9930534957000E-01 -3.7644066373000E-01
    15  1.4000000000000E-01  2.1491341126000E-01 -4.0137757957000E-01
    16  1.5000000000000E-01  2.3057785358000E-01 -4.2545085805000E-01
    17  1.6000000000000E-01  2.4630089831000E-01 -4.4860925051000E-01
    18  1.7000000000000E-01  2.6208440965000E-01 -4.7080358667000E-01
    19  1.8000000000000E-01  2.7792987556000E-01 -4.9198688652000E-01
    20  1.9000000000000E-01  2.9383839011000E-01 -5.1211446727000E-01
    21  2.0000000000000E-01  3.0981063684000E-01 -5.3114404508000E-01
    22  2.1000000000000E-01  3.2584687315000E-01 -5.4903583138000E-01
    23  2.2000000000000E-01  3.4194691580000E-01 -5.6575262351000E-01
    24  2.3000000000000E-01  3.5811012758000E-01 -5.8125988969000E-01
    25  2.4000000000000E-01  3.7433540507000E-01 -5.9552584781000E-01
    26  2.5000000000000E-01  3.9062116776000E-01 -6.0852153777000E-01
    27  2.6000000000000E-01  4.0696534820000E-01 -6.2022088832000E-01
    28  2.7000000000000E-01  4.2336538362000E-01 -6.3060077619000E-01
    29  2.8000000000000E-01  4.3981820874000E-01 -6.3964107939000E-01
    30  2.9000000000000E-01  4.5632024991000E-01 -6.4732472350000E-01
    31  3.0000000000000E-01  4.7286742056000E-01 -6.5363772106000E-01
    32  3.1000000000000E-01  4.8945511811000E-01 -6.5856920406000E-01
    33  3.2000000000000E-01  5.0607822211000E-01 -6.6211144924000E-01
    34  3.3000000000000E-01  5.2273109388000E-01 -6.6425989606000E-01
    35  3.4000000000000E-01  5.3940757737000E-01 -6.6501315875000E-01
    36  3.5000000000000E-01  5.5610100165000E-01 -6.6437302912000E-01
    37  3.6000000000000E-01  5.7280418454000E-01 -6.6234447445000E-01
    38  3.7000000000000E-01  5.8950943778000E-01 -6.5893562603000E-01
    39  3.8000000000000E-01  6.0620857351000E-01 -6.5415776270000E-01
    40  3.9000000000000E-01  6.2289291216000E-01 -6.4802528553000E-01
    41  4.0000000000000E-01  6.3955329170000E-01 -6.4055568629000E-01
    42  4.1000000000000E-01  6.5618007812000E-01 -6.3176950891000E-01
    43  4.2000000000000E-01  6.7276317743000E-01 -6.2169030389000E-01
    44  4.3000000000000E-01  6.8929204877000E-01 -6.1034457597000E-01
    45  4.4000000000000E-01  7.0575571890000E-01 -5.9776172518000E-01
    46  4.5000000000000E-01  7.2214279794000E-01 -5.8397398119000E-01
    47  4.6000000000000E-01  7.3844149631000E-01 -5.6901633146000E-01
    48  4.7000000000000E-01  7.5463964280000E-01 -5.5292644296000E-01
    49  4.8000000000000E-01  7.7072470392000E-01 -5.3574457806000E-01
    50  4.9000000000000E-01  7.8668380360000E-01 -5.1751350662000E-01
    51  5.0000000000000E-01  8.0250374587000E-01 -4.9827840593000E-01
    52  5.1000000000000E-01  8.1817103681000E-01 -4.7808676105000E-01
    53  5.2000000000000E-01  8.3367190661000E-01 -4.5698826420000E-01
    54  5.3000000000000E-01  8.4899233596000E-01 -4.3503469530000E-01
    55  5.4000000000000E-01  8.6411808098000E-01 -4.1227980671000E-01
    56  5.5000000000000E-01  8.7903469576000E-01 -3.8877921791000E-01
    57  5.6000000000000E-01  8.9372756678000E-01 -3.6459025813000E-01
    58  5.7000000000000E-01  9.0818192910000E-01 -3.3977188675000E-01
    59  5.8000000000000E-01  9.2238290850000E-01 -3.1438449993000E-01
    60  5.9000000000000E-01  9.3631553472000E-01 -2.8848986375000E-01
    61  6.0000000000000E-01  9.4996478569000E-01 -2.6215090883000E-01
    62  6.1000000000000E-01  9.6331560533000E-01 -2.3543164270000E-01
    63  6.2000000000000E-01  9.7635293860000E-01 -2.0839698406000E-01
    64  6.3000000000000E-01  9.8906176608000E-01 -1.8111259830000E-01
    65  6.4000000000000E-01  1.0014271229000E+00 -1.5364480368000E-01
    66  6.5000000000000E-01  1.0134341412000E+00 -1.2606037048000E-01
    67  6.6000000000000E-01  1.0250680785000E+00 -9.8426382186000E-02
    68  6.7000000000000E-01  1.0363143429000E+00 -7.0810112161000E-02
    69  6.8000000000000E-01  1.0471585234000E+00 -4.3278878217000E-02
    70  6.9000000000000E-01  1.0575864360000E+00 -1.5899818947000E-02
    71  7.0000000000000E-01  1.0675841380000E+00  1.1260178959000E-02
    72  7.1000000000000E-01  1.0771379635000E+00  3.8134653230000E-02
    73  7.2000000000000E-01  1.0862345516000E+00  6.4657704835000E-02
    74  7.3000000000000E-01  1.0948608788000E+00  9.0764157783000E-02
    75  7.4000000000000E-01  1.1030042939000E+00  1.1638973090000E-01
    76  7.5000000000000E-01  1.1106525370000E+00  1.4147113338000E-01
    77  7.6000000000000E-01  1.1177937714000E+00  1.6594622324000E-01
    78  7.7000000000000E-01  1.1244166111000E+00  1.8975414546000E-01
    79  7.8000000000000E-01  1.1305101481000E+00  2.1283546701000E-01
    80  7.9000000000000E-01  1.1360639780000E+00  2.3513230856000E-01
    81  8.0000000000000E-01  1.1410682259000E+00  2.5658847238000E-01
    82  8.1000000000000E-01  1.1455135703000E+00  2.7714956648000E-01
    83  8.2000000000000E-01  1.1493912668000E+00  2.9676312435000E-01
    84  8.3000000000000E-01  1.1526931703000E+00  3.1537872036000E-01
    85  8.4000000000000E-01  1.1554117569000E+00  3.3294808038000E-01
    86  8.5000000000000E-01  1.1575401436000E+00  3.4942518743000E-01
    87  8.6000000000000E-01  1.1590721077000E+00  3.6476638220000E-01
    88  8.7000000000000E-01  1.1600021049000E+00  3.7893045818000E-01
    89  8.8000000000000E-01  1.1603252857000E+00  3.9187875104000E-01
    90  8.9000000000000E-01  1.1600375110000E+00  4.0357522241000E-01
    91  9.0000000000000E-01  1.1591353663000E+00  4.1398653744000E-01
    92  9.1000000000000E-01  1.1576161743000E+00  4.2308213627000E-01
    93  9.2000000000000E-01  1.1554780061000E+00  4.3083429904000E-01
    94  9.3000000000000E-01  1.1527196915000E+00  4.3721820440000E-01
    95  9.4000000000000E-01  1.1493408273000E+00  4.4221198126000E-01
    96  9.5000000000000E-01  1.1453417840000E+00  4.4579675367000E-01
    97  9.6000000000000E-01  1.1407237119000E+00  4.4795667876000E-01
    98  9.7000000000000E-01  1.1354885441000E+00  4.4867897764000E-01
    99  9.8000000000000E-01  1.1296389906000E+00  4.4795391053000E-01
   100  9.9000000000000E-01  1.1231785625000E+00  4.4577491871000E-01
   101  1.0000000000000E+00  1.1161115585000E+00  4.4213856628000E-01
   102  1.0100000000000E+00  1.1084430571000E+00  4.3704451431000E-01
   103  1.0200000000000E+00  1.1001789171000E+00  4.3049553910000E-01
   104  1.0300000000000E+00  1.0913257726000E+00  4.2249752022000E-01
   105  1.0400000000000E+00  1.0818910165000E+00  4.1305936788000E-01
   106  1.0500000000000E+00  1.0718828180000E+00  4.0219313896000E-01
   107  1.0600000000000E+00  1.0613101014000E+00  3.8991394774000E-01
   108  1.0700000000000E+00  1.0501825233000E+00  3.7623986005000E-01
   109  1.0800000000000E+00  1.0385104670000E+00  3.6119188512000E-01
   110  1.0900000000000E+00  1.0263050195000E+00  3.4479386227000E-01
   111  1.1000000000000E+00  1.0135779883000E+00  3.2707260943000E-01
   112  1.1100000000000E+00  1.0003418550000E+00  3.0805768236000E-01
   113  1.1200000000000E+00  9.8660975995000E-01  2.8778131346000E-01
   114  1.1300000000000E+00  9.7239548521000E-01  2.6627832896000E-01
   115  1.1400000000000E+00  9.5771344687000E-01  2.4358618272000E-01
   116  1.1500000000000E+00  9.4257865768000E-01  2.1974478019000E-01
   117  1.1600000000000E+00  9.2700670492000E-01  1.9479635933000E-01
   118  1.1700000000000E+00  9.1101374313000E-01  1.6878544100000E-01
   119  1.1800000000000E+00  8.9461644568000E-01  1.4175874757000E-01
   120  1.1900000000000E+00  8.7783198408000E-01  1.1376501843000E-01
   121  1.2000000000000E+00  8.6067802077000E-01  8.4854973958000E-02
   122  1.2100000000000E+00  8.4317267319000E-01  5.5081210223000E-02
   123  1.2200000000000E+00  8.2533443960000E-01  2.4497928596000E-02
   124  1.2300000000000E+00  8.0718223217000E-01 -6.8390178722000E-03
   125  1.2400000000000E+00  7.8873536849000E-01 -3.8872145211000E-02
   126  1.2500000000000E+00  7.7001339546000E-01 -7.1542947125000E-02
   127  1.2600000000000E+00  7.5103620360000E-01 -1.0479156703000E-01
   128  1.2700000000000E+00  7.3182403293000E-01 -1.3855676321000E-01
   129  1.2800000000000E+00  7.1239718851000E-01 -1.7277693500000E-01
   130  1.2900000000000E+00  6.9277626396000E-01 -2.0738937058000E-01
   131  1.3000000000000E+00  6.7298210956000E-01 -2.4233034590000E-01
   132  1.3100000000000E+00  6.5303549359000E-01 -2.7753639444000E-01
   133  1.3200000000000E+00  6.3295744346000E-01 -3.1294307230000E-01
   134  1.3300000000000E+00  6.1276906957000E-01 -3.4848560440000E-01
   135  1.3400000000000E+00  5.9249131649000E-01 -3.8409985131000E-01
   136  1.3500000000000E+00  5.7214538897000E-01 -4.1972070326000E-01
   137  1.3600000000000E+00  5.5175226674000E-01 -4.5528392784000E-01
   138  1.3700000000000E+00  5.3133281510000E-01 -4.9072577400000E-01
   139  1.3800000000000E+00  5.1090814788000E-01 -5.2598156736000E-01
   140  1.3900000000000E+00  4.9049871556000E-01 -5.6098924228000E-01
   141  1.4000000000000E+00  4.7012520310000E-01 -5.9568587957000E-01
   142  1.4100000000000E+00  4.4980797746000E-01 -6.3000984341000E-01
   143  1.4200000000000E+00  4.2956695759000E-01 -6.6390130264000E-01
   144  1.4300000000000E+00  4.0942235614000E-01 -6.9729933669000E-01
   145  1.4400000000000E+00  3.8939333980000E-01 -7.3014716740000E-01
   146  1.4500000000000E+00  3.6949937426000E-01 -7.6238691073000E-01
   147  1.4600000000000E+00  3.4975924584000E-01 -7.9396339815000E-01
   148  1.4700000000000E+00  3.3019135003000E-01 -8.2482304993000E-01
   149  1.4800000000000E+00  3.1081402782000E-01 -8.5491256173000E-01
   150  1.4900000000000E+00  2.9164451222000E-01 -8.8418301625000E-01
   151  1.5000000000000E+00  2.7270048630000E-01 -9.1258380128000E-01
   152  1.5100000000000E+00  2.5399815014000E-01 -9.4007014659000E-01
   153  1.5200000000000E+00  2.3555403652000E-01 -9.6659604188000E-01
   154  1.5300000000000E+00  2.1738358034000E-01 -9.9211980788000E-01
   155  1.5400000000000E+00  1.9950194490000E-01 -1.0166008682000E+00
   156  1.5500000000000E+00  1.8192372409000E-01 -1.0400009158000E+00
   157  1.5600000000000E+00  1.6466263715000E-01 -1.0622850661000E+00
   158  1.5700000000000E+00  1.4773234680000E-01 -1.0834187167000E+00
   159  1.5800000000000E+00  1.3114508329000E-01 -1.1033728080000E+00
   160  1.5900000000000E+00  1.1491348264000E-01 -1.1221167900000E+00
   161  1.6000000000000E+00  9.9048263612000E-02 -1.1396274657000E+00
   162  1.6100000000000E+00  8.3560941834000E-02 -1.1558786709000E+00
   163  1.6200000000000E+00  6.8460780944000E-02 -1.1708528049000E+00
   164  1.6300000000000E+00  5.3757903629000E-02 -1.1845290839000E+00
   165  1.6400000000000E+00  3.9460294309000E-02 -1.1968947859000E+00
   166  1.6500000000000E+00  2.5576597056000E-02 -1.2079347799000E+00
   167  1.6600000000000E+00  1.2113463947000E-02 -1.2176413686000E+00
   168  1.6700000000000E+00 -9.2192910589000E-04 -1.2260049755000E+00
   169  1.6800000000000E+00 -1.3524310421000E-02 -1.2330230438000E+00
   170  1.6900000000000E+00 -2.5687946717000E-02 -1.2386913947000E+00
   171  1.7000000000000E+00 -3.7408985431000E-02 -1.2430126799000E+00
   172  1.7100000000000E+00 -4.8683099319000E-02 -1.2459879201000E+00
   173  1.7200000000000E+00 -5.9507880796000E-02 -1.2476249816000E+00
   174  1.7300000000000E+00 -6.9880364954000E-02 -1.2479298624000E+00
   175  1.7400000000000E+00 -7.9799598597000E-02 -1.2469155731000E+00
   176  1.7500000000000E+00 -8.9263932667000E-02 -1.2445928611000E+00
   177  1.7600000000000E+00 -9.8273843557000E-02 -1.2409796760000E+00
   178  1.7700000000000E+00 -1.0682899535000E-01 -1.2360914336000E+00
   179  1.7800000000000E+00 -1.1493116377000E-01 -1.2299504667000E+00
   180  1.7900000000000E+00 -1.2258146233000E-01 -1.2225771930000E+00
   181  1.8000000000000E+00 -1.2978274446000E-01 -1.2139975114000E+00
   182  1.8100000000000E+00 -1.3653759584000E-01 -1.2042367572000E+00
   183  1.8200000000000E+00 -1.4284987033000E-01 -1.1933240807000E+00
   184  1.8300000000000E+00 -1.4872357617000E-01 -1.1812893764000E+00
   185  1.8400000000000E+00 -1.5416350365000E-01 -1.1681648014000E+00
   186  1.8500000000000E+00 -1.5917500099000E-01 -1.1539843091000E+00
   187  1.8600000000000E+00 -1.6376375237000E-01 -1.1387829144000E+00
   188  1.8700000000000E+00 -1.6793632497000E-01 -1.1225979767000E+00
   189  1.8800000000000E+00 -1.7169928127000E-01 -1.1054673260000E+00
   190  1.8900000000000E+00 -1.7506022806000E-01 -1.0874309312000E+00
   191  1.9000000000000E+00 -1.7802667260000E-01 -1.0685294881000E+00
   192  1.9100000000000E+00 -1.8060700600000E-01 -1.0488048357000E+00
   193  1.9200000000000E+00 -1.8280974388000E-01 -1.0283001433000E+00
   194  1.9300000000000E+00 -1.8464389247000E-01 -1.0070589523000E+00
   195  1.9400000000000E+00 -1.8611883034000E-01 -9.8512597397000E-01
   196  1.9500000000000E+00 -1.8724421479000E-01 -9.6254668785000E-01
   197  1.9600000000000E+00 -1.8803004030000E-01 -9.3936619393000E-01
   198  1.9700000000000E+00 -1.8848668585000E-01 -9.1563222574000E-01
   199  1.9800000000000E+00 -1.8862456398000E-01 -8.9138973966000E-01
   200  1.9900000000000E+00 -1.8845462848000E-01 -8.6668708045000E-01
   201  2.0000000000000E+00 -1.8798776592000E-01 -8.4157036220000E-01
   202  2.0100000000000E+00 -1.8723519262000E-01 -8.1608669010000E-01
   203  2.0200000000000E+00 -1.8620841607000E-01 -7.9028413922000E-01
   204  2.0300000000000E+00 -1.8491862704000E-01 -7.6420741303000E-01
   205  2.0400000000000E+00 -1.8337792394000E-01 -7.3790605623000E-01
   206  2.0500000000000E+00 -1.8159756035000E-01 -7.1142347736000E-01
   207  2.0600000000000E+00 -1.7958956208000E-01 -6.8480677831000E-01
   208  2.0700000000000E+00 -1.7736580413000E-01 -6.5810144247000E-01
   209  2.0800000000000E+00 -1.7493772360000E-01 -6.3134967989000E-01
   210  2.0900000000000E+00 -1.7231798667000E-01 -6.0459966821000E-01
   211  2.1000000000000E+00 -1.6951757303000E-01 -5.7788990014000E-01
   212  2.1100000000000E+00 -1.6654872937000E-01 -5.5126482002000E-01
   213  2.1200000000000E+00 -1.6342317555000E-01 -5.2476557863000E-01
   214  2.1300000000000E+00 -1.6015200207000E-01 -4.9842951036000E-01
   215  2.1400000000000E+00 -1.5674780986000E-01 -4.7230080475000E-01
   216  2.1500000000000E+00 -1.5322092769000E-01 -4.4641204326000E-01
   217  2.1600000000000E+00 -1.4958307274000E-01 -4.2080189643000E-01
   218  2.1700000000000E+00 -1.4584556583000E-01 -3.9550665989000E-01
   219  2.1800000000000E+00 -1.4201852406000E-01 -3.7055647508000E-01
   220  2.1900000000000E+00 -1.3811380998000E-01 -3.4598895757000E-01
   221  2.2000000000000E+00 -1.3414102152000E-01 -3.2183102535000E-01
   222  2.2100000000000E+00 -1.3011047400000E-01 -2.9811229276000E-01
   223  2.2200000000000E+00 -1.2603310014000E-01 -2.7486462912000E-01
   224  2.2300000000000E+00 -1.2191745448000E-01 -2.5210909954000E-01
   225  2.2400000000000E+00 -1.1777395123000E-01 -2.2987427691000E-01
   226  2.2500000000000E+00 -1.1361166537000E-01 -2.0818267993000E-01
   227  2.2600000000000E+00 -1.0943880880000E-01 -1.8705276963000E-01
   228  2.2700000000000E+00 -1.0526549538000E-01 -1.6651036957000E-01
   229  2.2800000000000E+00 -1.0109884992000E-01 -1.4656881474000E-01
   230  2.2900000000000E+00 -9.6946958884000E-02 -1.2724487294000E-01
   231  2.3000000000000E+00 -9.2818720966000E-02 -1.0855809948000E-01
   232  2.3100000000000E+00 -8.8720070861000E-02 -9.0516156967000E-02
   233  2.3200000000000E+00 -8.4658805765000E-02 -7.3133436090000E-02
   234  2.3300000000000E+00 -8.0641977814000E-02 -5.6421187759000E-02
   235  2.3400000000000E+00 -7.6674908728000E-02 -4.0383866817000E-02
   236  2.3500000000000E+00 -7.2764787128000E-02 -2.5032311507000E-02
   237  2.3600000000000E+00 -6.8916865717000E-02 -1.0370170729000E-02
   238  2.3700000000000E+00 -6.5135831622000E-02  3.6012611832000E-03
   239  2.3800000000000E+00 -6.1428138468000E-02  1.6875047071000E-02
   240  2.3900000000000E+00 -5.7797368705000E-02  2.9454148516000E-02
   241  2.4000000000000E+00 -5.4247530888000E-02  4.1340454923000E-02
   242  2.4100000000000E+00 -5.0784236550000E-02  5.2531156818000E-02
   243  2.4200000000000E+00 -4.7409577315000E-02  6.3034698518000E-02
   244  2.4300000000000E+00 -4.4126964542000E-02  7.2855799288000E-02
   245  2.4400000000000E+00 -4.0940688613000E-02  8.1996994563000E-02
   246  2.4500000000000E+00 -3.7851953802000E-02  9.0469927177000E-02
   247  2.4600000000000E+00 -3.4863366674000E-02  9.8282648460000E-02
   248  2.4700000000000E+00 -3.1977927877000E-02  1.0544252903000E-01
   249  2.4800000000000E+00 -2.9196083842000E-02  1.1196376706000E-01
   250  2.4900000000000E+00 -2.6519567032000E-02  1.1785770847000E-01
   251  2.5000000000000E+00 -2.3950252787000E-02  1.2313570930000E-01
   252  2.5100000000000E+00 -2.1487849170000E-02  1.2781420201000E-01
   253  2.5200000000000E+00 -1.9133206587000E-02  1.3190755399000E-01
   254  2.5300000000000E+00 -1.6887239781000E-02  1.3543034895000E-01
   255  2.5400000000000E+00 -1.4748948884000E-02  1.3840088040000E-01
   256  2.5500000000000E+00 -1.2718318784000E-02  1.4083615064000E-01
   257  2.5600000000000E+00 -1.0795454275000E-02  1.4275335822000E-01
   258  2.5700000000000E+00 -8.9786929731000E-03  1.4417222791000E-01
   259  2.5800000000000E+00 -7.2671952966000E-03  1.4511190888000E-01
   260  2.5900000000000E+00 -5.6603819149000E-03  1.4559177507000E-01
   261  2.6000000000000E+00 -4.1559899073000E-03  1.4563250664000E-01
   262  2.6100000000000E+00 -2.7524198198000E-03  1.4525483007000E-01
   263  2.6200000000000E+00 -1.4485020540000E-03  1.4448003089000E-01
   264  2.6300000000000E+00 -2.4145091302000E-04  1.4332924752000E-01
   265  2.6400000000000E+00  8.7097308642000E-04  1.4182421755000E-01
   266  2.6500000000000E+00  1.8905722860000E-03  1.3998785861000E-01
   267  2.6600000000000E+00  2.8204633979000E-03  1.3784145106000E-01
   268  2.6700000000000E+00  3.6634274571000E-03  1.3540729209000E-01
   269  2.6800000000000E+00  4.4219590910000E-03  1.3270920997000E-01
   270  2.6900000000000E+00  5.0993230755000E-03  1.2976890768000E-01
   271  2.7000000000000E+00  5.6987911045000E-03  1.2660865090000E-01
   272  2.7100000000000E+00  6.2234575944000E-03  1.2325261717000E-01
   273  2.7200000000000E+00  6.6767337868000E-03  1.1972319836000E-01
   274  2.7300000000000E+00  7.0622409792000E-03  1.1604190211000E-01
   275  2.7400000000000E+00  7.3836206196000E-03  1.1223310023000E-01
   276  2.7500000000000E+00  7.6445453793000E-03  1.0832075162000E-01
   277  2.7600000000000E+00  7.8484607168000E-03  1.0432228667000E-01
   278  2.7700000000000E+00  7.9990351913000E-03  1.0025894810000E-01
   279  2.7800000000000E+00  8.1005603975000E-03  9.6158471015000E-02
   280  2.7900000000000E+00  8.1557996172000E-03  9.2031388358000E-02
   281  2.8000000000000E+00  8.1681874625000E-03  8.7895257357000E-02
   282  2.8100000000000E+00  8.1418122940000E-03  8.3773399597000E-02
   283  2.8200000000000E+00  8.0795494014000E-03  7.9677671734000E-02
   284  2.8300000000000E+00  7.9842751262000E-03  7.5619670903000E-02
   285  2.8400000000000E+00  7.8595035757000E-03  7.1616226310000E-02
   286  2.8500000000000E+00  7.7085668525000E-03  6.7682481286000E-02
   287  2.8600000000000E+00  7.5336081063000E-03  6.3823744107000E-02
   288  2.8700000000000E+00  7.3374246550000E-03  6.0050404290000E-02
   289  2.8800000000000E+00  7.1237747140000E-03  5.6379594484000E-02
   290  2.8900000000000E+00  6.8941848632000E-03  5.2812204905000E-02
   291  2.9000000000000E+00  6.6509759095000E-03  4.9354668914000E-02
   292  2.9100000000000E+00  6.3970868980000E-03  4.6017284825000E-02
   293  2.9200000000000E+00  6.1347085940000E-03  4.2805400993000E-02
   294  2.9300000000000E+00  5.8652604711000E-03  3.9719268140000E-02
   295  2.9400000000000E+00  5.5907261767000E-03  3.6762598573000E-02
   296  2.9500000000000E+00  5.3140439641000E-03  3.3944380134000E-02
   297  2.9600000000000E+00  5.0357702781000E-03  3.1259993960000E-02
   298  2.9700000000000E+00  4.7574320491000E-03  2.8710186588000E-02
   299  2.9800000000000E+00  4.4810547983000E-03  2.6298012695000E-02
   300  2.9900000000000E+00  4.2080100199000E-03  2.4023243994000E-02
   301  3.0000000000000E+00  3.9389032576000E-03  2.1881826321000E-02
   302  3.0100000000000E+00  3.6748549625000E-03  1.9872092797000E-02
   303  3.0200000000000E+00  3.4177845636000E-03  1.7995401371000E-02
   304  3.0300000000000E+00  3.1677535965000E-03  1.6245753329000E-02
   305  3.0400000000000E+00  2.9254168640000E-03  1.4619370987000E-02
   306  3.0500000000000E+00  2.6917536750000E-03  1.3113359988000E-02
   307  3.0600000000000E+00  2.4677042347000E-03  1.1724633180000E-02
   308  3.0700000000000E+00  2.2531294191000E-03  1.0447094522000E-02
   309  3.0800000000000E+00  2.0484249498000E-03  9.2760089817000E-03
   310  3.0900000000000E+00  1.8544058612000E-03  8.2070039752000E-03
   311  3.1000000000000E+00  1.6711086004000E-03  7.2348032316000E-03
   312  3.1100000000000E+00  1.4984122549000E-03  6.3538834067000E-03
   313  3.1200000000000E+00  1.3364265458000E-03  5.5588841789000E-03
   314  3.1300000000000E+00  1.1857212430000E-03  4.8437117947000E-03
   315  3.1400000000000E+00  1.0457670001000E-03  4.2037506319000E-03
   316  3.1500000000000E+00  9.1641789559000E-04  3.6337603211000E-03
   317  3.1600000000000E+00  7.9762828936000E-04  3.1279710839000E-03
   318  3.1700000000000E+00  6.8945555489000E-04  2.6799564573000E-03
   319  3.1800000000000E+00  5.9132838178000E-04  2.2866389459000E-03
   320  3.1900000000000E+00  5.0295492325000E-04  1.9433184007000E-03
   321  3.2000000000000E+00  4.2413928201000E-04  1.6439316750000E-03
   322  3.2100000000000E+00  3.5458095885000E-04  1.3836315829000E-03
   323  3.2200000000000E+00  2.9372894518000E-04  1.1606631736000E-03
   324  3.2300000000000E+00  2.4116726230000E-04  9.7140594999000E-04
   325  3.2400000000000E+00  1.9655539335000E-04  8.0991450352000E-04
   326  3.2500000000000E+00  1.5941144109000E-04  6.7396049810000E-04
   327  3.2600000000000E+00  1.2918178652000E-04  5.6309173657000E-04
   328  3.2700000000000E+00  1.0536599369000E-04  4.7515187547000E-04
   329  3.2800000000000E+00  8.9781127219000E-05  4.1699022480000E-04
   330  3.2900000000000E+00  7.9720093659000E-05  3.7786850248000E-04
   331  3.3000000000000E+00  7.2254523377000E-05  3.4618595914000E-04
   332  3.3100000000000E+00  6.5468370345000E-05  3.1427432978000E-04
   333  3.3200000000000E+00  5.0893976674000E-05  2.4533262288000E-04
   334  3.3300000000000E+00  3.3574867449000E-05  1.6267238068000E-04
   335  3.3400000000000E+00  1.6979555756000E-05  8.2609810646000E-05
   336  3.3500000000000E+00  2.5679617758000E-06  1.2537089148000E-05
   337  3.3600000000000E+00 -3.1550322262000E-06 -1.5136510185000E-05
   338  3.3700000000000E+00 -4.2606357185000E-06 -2.0440728120000E-05
   339  3.3800000000000E+00 -3.0871491133000E-06 -1.4810835721000E-05
   340  3.3900000000000E+00 -6.3538707882000E-07 -3.0483184641000E-06
   341  3.4000000000000E+00  0.0000000000000E+00  0.0000000000000E+00
   342  3.4100000000000E+00  0.0000000000000E+00  0.0000000000000E+00
   343  3.4200000000000E+00  0.0000000000000E+00  0.0000000000000E+00
   344  3.4300000000000E+00  0.0000000000000E+00  0.0000000000000E+00
   345  3.4400000000000E+00  0.0000000000000E+00  0.0000000000000E+00
   346  3.4500000000000E+00  0.0000000000000E+00  0.0000000000000E+00
   347  3.4600000000000E+00  0.0000000000000E+00  0.0000000000000E+00
   348  3.4700000000000E+00  0.0000000000000E+00  0.0000000000000E+00
   349  3.4800000000000E+00  0.0000000000000E+00  0.0000000000000E+00
   350  3.4900000000000E+00  0.0000000000000E+00  0.0000000000000E+00
   351  3.5000000000000E+00  0.0000000000000E+00  0.0000000000000E+00
   352  3.5100000000000E+00  0.0000000000000E+00  0.0000000000000E+00
   353  3.5200000000000E+00  0.0000000000000E+00  0.0000000000000E+00
   354  3.5300000000000E+00  0.0000000000000E+00  0.0000000000000E+00
   355  3.5400000000000E+00  0.0000000000000E+00  0.0000000000000E+00
   356  3.5500000000000E+00  0.0000000000000E+00  0.0000000000000E+00
   357  3.5600000000000E+00  0.0000000000000E+00  0.0000000000000E+00
   358  3.5700000000000E+00  0.0000000000000E+00  0.0000000000000E+00
   359  3.5800000000000E+00  0.0000000000000E+00  0.0000000000000E+00
   360  3.5900000000000E+00  0.0000000000000E+00  0.0000000000000E+00
   361  3.6000000000000E+00  0.0000000000000E+00  0.0000000000000E+00
   362  3.6100000000000E+00  0.0000000000000E+00  0.0000000000000E+00
   363  3.6200000000000E+00  0.0000000000000E+00  0.0000000000000E+00
   364  3.6300000000000E+00  0.0000000000000E+00  0.0000000000000E+00
   365  3.6400000000000E+00  0.0000000000000E+00  0.0000000000000E+00
   366  3.6500000000000E+00  0.0000000000000E+00  0.0000000000000E+00
   367  3.6600000000000E+00  0.0000000000000E+00  0.0000000000000E+00
   368  3.6700000000000E+00  0.0000000000000E+00  0.0000000000000E+00
   369  3.6800000000000E+00  0.0000000000000E+00  0.0000000000000E+00
   370  3.6900000000000E+00  0.0000000000000E+00  0.0000000000000E+00
   371  3.7000000000000E+00  0.0000000000000E+00  0.0000000000000E+00
   372  3.7100000000000E+00  0.0000000000000E+00  0.0000000000000E+00
   373  3.7200000000000E+00  0.0000000000000E+00  0.0000000000000E+00
   374  3.7300000000000E+00  0.0000000000000E+00  0.0000000000000E+00
   375  3.7400000000000E+00  0.0000000000000E+00  0.0000000000000E+00
   376  3.7500000000000E+00  0.0000000000000E+00  0.0000000000000E+00
   377  3.7600000000000E+00  0.0000000000000E+00  0.0000000000000E+00
   378  3.7700000000000E+00  0.0000000000000E+00  0.0000000000000E+00
   379  3.7800000000000E+00  0.0000000000000E+00  0.0000000000000E+00
   380  3.7900000000000E+00  0.0000000000000E+00  0.0000000000000E+00
   381  3.8000000000000E+00  0.0000000000000E+00  0.0000000000000E+00
   382  3.8100000000000E+00  0.0000000000000E+00  0.0000000000000E+00
   383  3.8200000000000E+00  0.0000000000000E+00  0.0000000000000E+00
   384  3.8300000000000E+00  0.0000000000000E+00  0.0000000000000E+00
   385  3.8400000000000E+00  0.0000000000000E+00  0.0000000000000E+00
   386  3.8500000000000E+00  0.0000000000000E+00  0.0000000000000E+00
   387  3.8600000000000E+00  0.0000000000000E+00  0.0000000000000E+00
   388  3.8700000000000E+00  0.0000000000000E+00  0.0000000000000E+00
   389  3.8800000000000E+00  0.0000000000000E+00  0.0000000000000E+00
   390  3.8900000000000E+00  0.0000000000000E+00  0.0000000000000E+00
   391  3.9000000000000E+00  0.0000000000000E+00  0.0000000000000E+00
   392  3.9100000000000E+00  0.0000000000000E+00  0.0000000000000E+00
   393  3.9200000000000E+00  0.0000000000000E+00  0.0000000000000E+00
   394  3.9300000000000E+00  0.0000000000000E+00  0.0000000000000E+00
   395  3.9400000000000E+00  0.0000000000000E+00  0.0000000000000E+00
   396  3.9500000000000E+00  0.0000000000000E+00  0.0000000000000E+00
   397  3.9600000000000E+00  0.0000000000000E+00  0.0000000000000E+00
   398  3.9700000000000E+00  0.0000000000000E+00  0.0000000000000E+00
   399  3.9800000000000E+00  0.0000000000000E+00  0.0000000000000E+00
   400  3.9900000000000E+00  0.0000000000000E+00  0.0000000000000E+00
   401  4.0000000000000E+00  0.0000000000000E+00  0.0000000000000E+00
   402  4.0100000000000E+00  0.0000000000000E+00  0.0000000000000E+00
   403  4.0200000000000E+00  0.0000000000000E+00  0.0000000000000E+00
   404  4.0300000000000E+00  0.0000000000000E+00  0.0000000000000E+00
   405  4.0400000000000E+00  0.0000000000000E+00  0.0000000000000E+00
   406  4.0500000000000E+00  0.0000000000000E+00  0.0000000000000E+00
   407  4.0600000000000E+00  0.0000000000000E+00  0.0000000000000E+00
   408  4.0700000000000E+00  0.0000000000000E+00  0.0000000000000E+00
   409  4.0800000000000E+00  0.0000000000000E+00  0.0000000000000E+00
   410  4.0900000000000E+00  0.0000000000000E+00  0.0000000000000E+00
   411  4.1000000000000E+00  0.0000000000000E+00  0.0000000000000E+00
   412  4.1100000000000E+00  0.0000000000000E+00  0.0000000000000E+00
   413  4.1200000000000E+00  0.0000000000000E+00  0.0000000000000E+00
   414  4.1300000000000E+00  0.0000000000000E+00  0.0000000000000E+00
   415  4.1400000000000E+00  0.0000000000000E+00  0.0000000000000E+00
   416  4.1500000000000E+00  0.0000000000000E+00  0.0000000000000E+00
   417  4.1600000000000E+00  0.0000000000000E+00  0.0000000000000E+00
   418  4.1700000000000E+00  0.0000000000000E+00  0.0000000000000E+00
   419  4.1800000000000E+00  0.0000000000000E+00  0.0000000000000E+00
   420  4.1900000000000E+00  0.0000000000000E+00  0.0000000000000E+00
   421  4.2000000000000E+00  0.0000000000000E+00  0.0000000000000E+00
   422  4.2100000000000E+00  0.0000000000000E+00  0.0000000000000E+00
   423  4.2200000000000E+00  0.0000000000000E+00  0.0000000000000E+00