Pb   ONCVPSP-2.1.1   r_core=    3.55686 3.59954 3.31119 3.59954
    82.0000   14.0000   150105   zatom,zion,pspd
    8   11   3   4   600   0   pspcod,pspxc,lmax,lloc,mmax,r2well
    5.99000000   0.00000000   0.00000000   rchrg fchrg qchrg
    2   2   2   2   0   nproj
    1   1   extension_switch
       0                         2.3511941561000E+00  2.3733727703000E-01
     1  0.0000000000000E+00  0.0000000000000E+00  0.0000000000000E+00
     2  1.0000000000000E-02  1.4915188014000E-02 -2.9185272742000E-02
     3  2.0000000000000E-02  2.9833300943000E-02 -5.8319249623000E-02
     4  3.0000000000000E-02  4.4757245730000E-02 -8.7350733710000E-02
     5  4.0000000000000E-02  5.9689893417000E-02 -1.1622872573000E-01
     6  5.0000000000000E-02  7.4634061293000E-02 -1.4490252245000E-01
     7  6.0000000000000E-02  8.9592495170000E-02 -1.7332181441000E-01
     8  7.0000000000000E-02  1.0456785182000E-01 -2.0143678303000E-01
     9  8.0000000000000E-02  1.1956268159000E-01 -2.2919819660000E-01
    10  9.0000000000000E-02  1.3457941133000E-01 -2.5655750530000E-01
    11  1.0000000000000E-01  1.4962032751000E-01 -2.8346693482000E-01
    12  1.1000000000000E-01  1.6468755969000E-01 -3.0987957847000E-01
    13  1.2000000000000E-01  1.7978306440000E-01 -3.3574948769000E-01
    14  1.3000000000000E-01  1.9490860933000E-01 -3.6103176064000E-01
    15  1.4000000000000E-01  2.1006575804000E-01 -3.8568262883000E-01
    16  1.5000000000000E-01  2.2525585502000E-01 -4.0965954152000E-01
    17  1.6000000000000E-01  2.4048001135000E-01 -4.3292124782000E-01
    18  1.7000000000000E-01  2.5573909090000E-01 -4.5542787620000E-01
    19  1.8000000000000E-01  2.7103369699000E-01 -4.7714101149000E-01
    20  1.9000000000000E-01  2.8636415976000E-01 -4.9802376888000E-01
    21  2.0000000000000E-01  3.0173052411000E-01 -5.1804086515000E-01
    22  2.1000000000000E-01  3.1713253832000E-01 -5.3715868668000E-01
    23  2.2000000000000E-01  3.3256964335000E-01 -5.5534535431000E-01
    24  2.3000000000000E-01  3.4804096283000E-01 -5.7257078485000E-01
    25  2.4000000000000E-01  3.6354529382000E-01 -5.8880674913000E-01
    26  2.5000000000000E-01  3.7908109831000E-01 -6.0402692628000E-01
    27  2.6000000000000E-01  3.9464649550000E-01 -6.1820695491000E-01
    28  2.7000000000000E-01  4.1023925487000E-01 -6.3132447967000E-01
    29  2.8000000000000E-01  4.2585679013000E-01 -6.4335919459000E-01
    30  2.9000000000000E-01  4.4149615390000E-01 -6.5429288225000E-01
    31  3.0000000000000E-01  4.5715403337000E-01 -6.6410944891000E-01
    32  3.1000000000000E-01  4.7282674668000E-01 -6.7279495559000E-01
    33  3.2000000000000E-01  4.8851024029000E-01 -6.8033764497000E-01
    34  3.3000000000000E-01  5.0420008728000E-01 -6.8672796374000E-01
    35  3.4000000000000E-01  5.1989148631000E-01 -6.9195858176000E-01
    36  3.5000000000000E-01  5.3557926176000E-01 -6.9602440535000E-01
    37  3.6000000000000E-01  5.5125786460000E-01 -6.9892258796000E-01
    38  3.7000000000000E-01  5.6692137428000E-01 -7.0065253459000E-01
    39  3.8000000000000E-01  5.8256350137000E-01 -7.0121590422000E-01
    40  3.9000000000000E-01  5.9817759130000E-01 -7.0061660564000E-01
    41  4.0000000000000E-01  6.1375662890000E-01 -6.9886079020000E-01
    42  4.1000000000000E-01  6.2929324384000E-01 -6.9595683992000E-01
    43  4.2000000000000E-01  6.4477971695000E-01 -6.9191535140000E-01
    44  4.3000000000000E-01  6.6020798752000E-01 -6.8674911524000E-01
    45  4.4000000000000E-01  6.7556966137000E-01 -6.8047309146000E-01
    46  4.5000000000000E-01  6.9085601983000E-01 -6.7310438054000E-01
    47  4.6000000000000E-01  7.0605802960000E-01 -6.6466219039000E-01
    48  4.7000000000000E-01  7.2116635336000E-01 -6.5516779928000E-01
    49  4.8000000000000E-01  7.3617136129000E-01 -6.4464451471000E-01
    50  4.9000000000000E-01  7.5106314307000E-01 -6.3311762922000E-01
    51  5.0000000000000E-01  7.6583152137000E-01 -6.2061437033000E-01
    52  5.1000000000000E-01  7.8046606569000E-01 -6.0716384772000E-01
    53  5.2000000000000E-01  7.9495610601000E-01 -5.9279699977000E-01
    54  5.3000000000000E-01  8.0929074891000E-01 -5.7754653122000E-01
    55  5.4000000000000E-01  8.2345889394000E-01 -5.6144684832000E-01
    56  5.5000000000000E-01  8.3744924737000E-01 -5.4453400210000E-01
    57  5.6000000000000E-01  8.5125034462000E-01 -5.2684560045000E-01
    58  5.7000000000000E-01  8.6485056080000E-01 -5.0842076124000E-01
    59  5.8000000000000E-01  8.7823813767000E-01 -4.8930000560000E-01
    60  5.9000000000000E-01  8.9140119270000E-01 -4.6952521571000E-01
    61  6.0000000000000E-01  9.0432774858000E-01 -4.4913951587000E-01
    62  6.1000000000000E-01  9.1700574415000E-01 -4.2818722297000E-01
    63  6.2000000000000E-01  9.2942305947000E-01 -4.0671374215000E-01
    64  6.3000000000000E-01  9.4156753732000E-01 -3.8476547550000E-01
    65  6.4000000000000E-01  9.5342699732000E-01 -3.6238975934000E-01
    66  6.5000000000000E-01  9.6498926567000E-01 -3.3963473921000E-01
    67  6.6000000000000E-01  9.7624219291000E-01 -3.1654929118000E-01
    68  6.7000000000000E-01  9.8717367282000E-01 -2.9318293937000E-01
    69  6.8000000000000E-01  9.9777166499000E-01 -2.6958575735000E-01
    70  6.9000000000000E-01  1.0080242245000E+00 -2.4580824008000E-01
    71  7.0000000000000E-01  1.0179195146000E+00 -2.2190124472000E-01
    72  7.1000000000000E-01  1.0274458319000E+00 -1.9791588080000E-01
    73  7.2000000000000E-01  1.0365916261000E+00 -1.7390342055000E-01
    74  7.3000000000000E-01  1.0453455269000E+00 -1.4991518081000E-01
    75  7.4000000000000E-01  1.0536963656000E+00 -1.2600242544000E-01
    76  7.5000000000000E-01  1.0616331927000E+00 -1.0221628443000E-01
    77  7.6000000000000E-01  1.0691453013000E+00 -7.8607647599000E-02
    78  7.7000000000000E-01  1.0762222490000E+00 -5.5227066879000E-02
    79  7.8000000000000E-01  1.0828538785000E+00 -3.2124659278000E-02
    80  7.9000000000000E-01  1.0890303387000E+00 -9.3500108167000E-03
    81  8.0000000000000E-01  1.0947421052000E+00  1.3047918428000E-02
    82  8.1000000000000E-01  1.0999800004000E+00  3.5020887986000E-02
    83  8.2000000000000E-01  1.1047352130000E+00  5.6521469182000E-02
    84  8.3000000000000E-01  1.1089993172000E+00  7.7503134175000E-02
    85  8.4000000000000E-01  1.1127642919000E+00  9.7920349673000E-02
    86  8.5000000000000E-01  1.1160225387000E+00  1.1772866078000E-01
    87  8.6000000000000E-01  1.1187668977000E+00  1.3688476843000E-01
    88  8.7000000000000E-01  1.1209906668000E+00  1.5534662305000E-01
    89  8.8000000000000E-01  1.1226876170000E+00  1.7307349994000E-01
    90  8.9000000000000E-01  1.1238520080000E+00  1.9002607569000E-01
    91  9.0000000000000E-01  1.1244786032000E+00  2.0616650342000E-01
    92  9.1000000000000E-01  1.1245626833000E+00  2.2145848431000E-01
    93  9.2000000000000E-01  1.1241000603000E+00  2.3586733613000E-01
    94  9.3000000000000E-01  1.1230870896000E+00  2.4936005851000E-01
    95  9.4000000000000E-01  1.1215206816000E+00  2.6190539479000E-01
    96  9.5000000000000E-01  1.1193983127000E+00  2.7347389037000E-01
    97  9.6000000000000E-01  1.1167180348000E+00  2.8403794736000E-01
    98  9.7000000000000E-01  1.1134784843000E+00  2.9357187535000E-01
    99  9.8000000000000E-01  1.1096788839000E+00  3.0205190907000E-01
   100  9.9000000000000E-01  1.1053190609000E+00  3.0945630456000E-01
   101  1.0000000000000E+00  1.1003994574000E+00  3.1576540169000E-01
   102  1.0100000000000E+00  1.0949211199000E+00  3.2096158383000E-01
   103  1.0200000000000E+00  1.0888857094000E+00  3.2502933991000E-01
   104  1.0300000000000E+00  1.0822955048000E+00  3.2795529062000E-01
   105  1.0400000000000E+00  1.0751533960000E+00  3.2972816869000E-01
   106  1.0500000000000E+00  1.0674629007000E+00  3.3033891568000E-01
   107  1.0600000000000E+00  1.0592281722000E+00  3.2978073940000E-01
   108  1.0700000000000E+00  1.0504539729000E+00  3.2804899576000E-01
   109  1.0800000000000E+00  1.0411456819000E+00  3.2514124360000E-01
   110  1.0900000000000E+00  1.0313092790000E+00  3.2105717292000E-01
   111  1.1000000000000E+00  1.0209513768000E+00  3.1579880238000E-01
   112  1.1100000000000E+00  1.0100791952000E+00  3.0937036561000E-01
   113  1.1200000000000E+00  9.9870054371000E-01  3.0177823888000E-01
   114  1.1300000000000E+00  9.8682381294000E-01  2.9303090630000E-01
   115  1.1400000000000E+00  9.7445799068000E-01  2.8313908449000E-01
   116  1.1500000000000E+00  9.6161264853000E-01  2.7211569225000E-01
   117  1.1600000000000E+00  9.4829790942000E-01  2.5997568032000E-01
   118  1.1700000000000E+00  9.3452443857000E-01  2.4673598564000E-01
   119  1.1800000000000E+00  9.2030346547000E-01  2.3241575343000E-01
   120  1.1900000000000E+00  9.0564673867000E-01  2.1703608941000E-01
   121  1.2000000000000E+00  8.9056651287000E-01  2.0061998661000E-01
   122  1.2100000000000E+00  8.7507554822000E-01  1.8319236538000E-01
   123  1.2200000000000E+00  8.5918709013000E-01  1.6478010725000E-01
   124  1.2300000000000E+00  8.4291484215000E-01  1.4541181033000E-01
   125  1.2400000000000E+00  8.2627297105000E-01  1.2511780325000E-01
   126  1.2500000000000E+00  8.0927605873000E-01  1.0393020890000E-01
   127  1.2600000000000E+00  7.9193909810000E-01  8.1882693424000E-02
   128  1.2700000000000E+00  7.7427750932000E-01  5.9010514395000E-02
   129  1.2800000000000E+00  7.5630703280000E-01  3.5350424054000E-02
   130  1.2900000000000E+00  7.3804377750000E-01  1.0940557740000E-02
   131  1.3000000000000E+00  7.1950423417000E-01 -1.4179498226000E-02
   132  1.3100000000000E+00  7.0070510834000E-01 -3.9969036897000E-02
   133  1.3200000000000E+00  6.8166344621000E-01 -6.6386087619000E-02
   134  1.3300000000000E+00  6.6239659030000E-01 -9.3387468425000E-02
   135  1.3400000000000E+00  6.4292201171000E-01 -1.2092923126000E-01
   136  1.3500000000000E+00  6.2325751472000E-01 -1.4896621171000E-01
   137  1.3600000000000E+00  6.0342103465000E-01 -1.7745251837000E-01
   138  1.3700000000000E+00  5.8343061230000E-01 -2.0634167379000E-01
   139  1.3800000000000E+00  5.6330463158000E-01 -2.3558596002000E-01
   140  1.3900000000000E+00  5.4306132208000E-01 -2.6513781763000E-01
   141  1.4000000000000E+00  5.2271918588000E-01 -2.9494869019000E-01
   142  1.4100000000000E+00  5.0229678200000E-01 -3.2496961772000E-01
   143  1.4200000000000E+00  4.8181253312000E-01 -3.5515186284000E-01
   144  1.4300000000000E+00  4.6128522009000E-01 -3.8544542114000E-01
   145  1.4400000000000E+00  4.4073319186000E-01 -4.1580143580000E-01
   146  1.4500000000000E+00  4.2017507875000E-01 -4.4617004294000E-01
   147  1.4600000000000E+00  3.9962932641000E-01 -4.7650179745000E-01
   148  1.4700000000000E+00  3.7911419620000E-01 -5.0674771796000E-01
   149  1.4800000000000E+00  3.5864815967000E-01 -5.3685801975000E-01
   150  1.4900000000000E+00  3.3824903648000E-01 -5.6678489595000E-01
   151  1.5000000000000E+00  3.1793509571000E-01 -5.9647898098000E-01
   152  1.5100000000000E+00  2.9772381267000E-01 -6.2589337516000E-01
   153  1.5200000000000E+00  2.7763292646000E-01 -6.5498022859000E-01
   154  1.5300000000000E+00  2.5767966216000E-01 -6.8369327139000E-01
   155  1.5400000000000E+00  2.3788105837000E-01 -7.1198676645000E-01
   156  1.5500000000000E+00  2.1825401207000E-01 -7.3981534726000E-01
   157  1.5600000000000E+00  1.9881476472000E-01 -7.6713574407000E-01
   158  1.5700000000000E+00  1.7957979484000E-01 -7.9390380841000E-01
   159  1.5800000000000E+00  1.6056446863000E-01 -8.2007902641000E-01
   160  1.5900000000000E+00  1.4178474861000E-01 -8.4561880609000E-01
   161  1.6000000000000E+00  1.2325509644000E-01 -8.7048550853000E-01
   162  1.6100000000000E+00  1.0499075550000E-01 -8.9463879159000E-01
   163  1.6200000000000E+00  8.7005354144000E-02 -9.1804366626000E-01
   164  1.6300000000000E+00  6.9313222513000E-02 -9.4066270461000E-01
   165  1.6400000000000E+00  5.1927161403000E-02 -9.6246355540000E-01
   166  1.6500000000000E+00  3.4860508980000E-02 -9.8341197944000E-01
   167  1.6600000000000E+00  1.8125152587000E-02 -1.0034785561000E+00
   168  1.6700000000000E+00  1.7334044358000E-03 -1.0226323547000E+00
   169  1.6800000000000E+00 -1.4303848391000E-02 -1.0408471780000E+00
   170  1.6900000000000E+00 -2.9975339941000E-02 -1.0580954735000E+00
   171  1.7000000000000E+00 -4.5271268701000E-02 -1.0743545519000E+00
   172  1.7100000000000E+00 -6.0181423382000E-02 -1.0896002647000E+00
   173  1.7200000000000E+00 -7.4697169385000E-02 -1.1038136966000E+00
   174  1.7300000000000E+00 -8.8809348686000E-02 -1.1169740938000E+00
   175  1.7400000000000E+00 -1.0251056813000E-01 -1.1290665531000E+00
   176  1.7500000000000E+00 -1.1579271454000E-01 -1.1400736803000E+00
   177  1.7600000000000E+00 -1.2864970031000E-01 -1.1499847806000E+00
   178  1.7700000000000E+00 -1.4107444551000E-01 -1.1587857731000E+00
   179  1.7800000000000E+00 -1.5306216005000E-01 -1.1664701214000E+00
   180  1.7900000000000E+00 -1.6460695868000E-01 -1.1730275837000E+00
   181  1.8000000000000E+00 -1.7570515865000E-01 -1.1784551256000E+00
   182  1.8100000000000E+00 -1.8635226649000E-01 -1.1827469754000E+00
   183  1.8200000000000E+00 -1.9654555682000E-01 -1.1859030860000E+00
   184  1.8300000000000E+00 -2.0628201570000E-01 -1.1879224104000E+00
   185  1.8400000000000E+00 -2.1555981678000E-01 -1.1888076837000E+00
   186  1.8500000000000E+00 -2.2437746316000E-01 -1.1885626584000E+00
   187  1.8600000000000E+00 -2.3273397809000E-01 -1.1871926833000E+00
   188  1.8700000000000E+00 -2.4062938935000E-01 -1.1847062730000E+00
   189  1.8800000000000E+00 -2.4806354080000E-01 -1.1811112958000E+00
   190  1.8900000000000E+00 -2.5503794065000E-01 -1.1764208106000E+00
   191  1.9000000000000E+00 -2.6155328866000E-01 -1.1706453204000E+00
   192  1.9100000000000E+00 -2.6761230779000E-01 -1.1638015260000E+00
   193  1.9200000000000E+00 -2.7321705471000E-01 -1.1559040764000E+00
   194  1.9300000000000E+00 -2.7837091359000E-01 -1.1469715781000E+00
   195  1.9400000000000E+00 -2.8307743228000E-01 -1.1370231385000E+00
   196  1.9500000000000E+00 -2.8734062323000E-01 -1.1260791936000E+00
   197  1.9600000000000E+00 -2.9116543488000E-01 -1.1141628920000E+00
   198  1.9700000000000E+00 -2.9455653488000E-01 -1.1012966233000E+00
   199  1.9800000000000E+00 -2.9752000958000E-01 -1.0875066798000E+00
   200  1.9900000000000E+00 -3.0006156717000E-01 -1.0728184452000E+00
   201  2.0000000000000E+00 -3.0218792648000E-01 -1.0572599135000E+00
   202  2.0100000000000E+00 -3.0390600536000E-01 -1.0408597307000E+00
   203  2.0200000000000E+00 -3.0522304184000E-01 -1.0236473841000E+00
   204  2.0300000000000E+00 -3.0614700335000E-01 -1.0056540864000E+00
   205  2.0400000000000E+00 -3.0668577823000E-01 -9.8691125436000E-01
   206  2.0500000000000E+00 -3.0684806090000E-01 -9.6745173746000E-01
   207  2.0600000000000E+00 -3.0664263032000E-01 -9.4730907909000E-01
   208  2.0700000000000E+00 -3.0607863751000E-01 -9.2651743521000E-01
   209  2.0800000000000E+00 -3.0516560187000E-01 -9.0511163907000E-01
   210  2.0900000000000E+00 -3.0391328621000E-01 -8.8312776038000E-01
   211  2.1000000000000E+00 -3.0233168704000E-01 -8.6060118482000E-01
   212  2.1100000000000E+00 -3.0043116841000E-01 -8.3756910391000E-01
   213  2.1200000000000E+00 -2.9822220496000E-01 -8.1406825772000E-01
   214  2.1300000000000E+00 -2.9571545056000E-01 -7.9013542117000E-01
   215  2.1400000000000E+00 -2.9292209211000E-01 -7.6580966613000E-01
   216  2.1500000000000E+00 -2.8985290309000E-01 -7.4112700074000E-01
   217  2.1600000000000E+00 -2.8651934083000E-01 -7.1612632990000E-01
   218  2.1700000000000E+00 -2.8293278069000E-01 -6.9084557097000E-01
   219  2.1800000000000E+00 -2.7910444780000E-01 -6.6532132058000E-01
   220  2.1900000000000E+00 -2.7504646982000E-01 -6.3959383024000E-01
   221  2.2000000000000E+00 -2.7076999117000E-01 -6.1369842018000E-01
   222  2.2100000000000E+00 -2.6628686209000E-01 -5.8767305950000E-01
   223  2.2200000000000E+00 -2.6160916725000E-01 -5.6155630085000E-01
   224  2.2300000000000E+00 -2.5674806819000E-01 -5.3538231305000E-01
   225  2.2400000000000E+00 -2.5171592481000E-01 -5.0918987529000E-01
   226  2.2500000000000E+00 -2.4652421654000E-01 -4.8301375752000E-01
   227  2.2600000000000E+00 -2.4118427358000E-01 -4.5688772477000E-01
   228  2.2700000000000E+00 -2.3570877311000E-01 -4.3085057459000E-01
   229  2.2800000000000E+00 -2.3010829235000E-01 -4.0493240015000E-01
   230  2.2900000000000E+00 -2.2439454268000E-01 -3.7916741078000E-01
   231  2.3000000000000E+00 -2.1857956304000E-01 -3.5359074995000E-01
   232  2.3100000000000E+00 -2.1267361099000E-01 -3.2823035166000E-01
   233  2.3200000000000E+00 -2.0668850818000E-01 -3.0311978925000E-01
   234  2.3300000000000E+00 -2.0063524360000E-01 -2.7828919339000E-01
   235  2.3400000000000E+00 -1.9452385812000E-01 -2.5376481841000E-01
   236  2.3500000000000E+00 -1.8836608948000E-01 -2.2957889051000E-01
   237  2.3600000000000E+00 -1.8217170275000E-01 -2.0575611737000E-01
   238  2.3700000000000E+00 -1.7595044981000E-01 -1.8232086112000E-01
   239  2.3800000000000E+00 -1.6971382621000E-01 -1.5930345861000E-01
   240  2.3900000000000E+00 -1.6347027816000E-01 -1.3672308488000E-01
   241  2.4000000000000E+00 -1.5722926120000E-01 -1.1460222610000E-01
   242  2.4100000000000E+00 -1.5100160617000E-01 -9.2967893297000E-02
   243  2.4200000000000E+00 -1.4479467300000E-01 -7.1834765799000E-02
   244  2.4300000000000E+00 -1.3861753638000E-01 -5.1223187032000E-02
   245  2.4400000000000E+00 -1.3247986920000E-01 -3.1155266860000E-02
   246  2.4500000000000E+00 -1.2638830741000E-01 -1.1642590864000E-02
   247  2.4600000000000E+00 -1.2035126603000E-01  7.2975401550000E-03
   248  2.4700000000000E+00 -1.1437726083000E-01  2.5647740121000E-02
   249  2.4800000000000E+00 -1.0847212583000E-01  4.3399670356000E-02
   250  2.4900000000000E+00 -1.0264348572000E-01  6.0539416970000E-02
   251  2.5000000000000E+00 -9.6898749686000E-02  7.7053986593000E-02
   252  2.5100000000000E+00 -9.1242870537000E-02  9.2938425466000E-02
   253  2.5200000000000E+00 -8.5682561262000E-02  1.0818248886000E-01
   254  2.5300000000000E+00 -8.0224212232000E-02  1.2277714795000E-01
   255  2.5400000000000E+00 -7.4871821535000E-02  1.3672092902000E-01
   256  2.5500000000000E+00 -6.9631082669000E-02  1.5000746032000E-01
   257  2.5600000000000E+00 -6.4507479284000E-02  1.6263120770000E-01
   258  2.5700000000000E+00 -5.9503994089000E-02  1.7459420463000E-01
   259  2.5800000000000E+00 -5.4625210959000E-02  1.8589406277000E-01
   260  2.5900000000000E+00 -4.9875829540000E-02  1.9652828613000E-01
   261  2.6000000000000E+00 -4.5257776282000E-02  2.0650235299000E-01
   262  2.6100000000000E+00 -4.0774457568000E-02  2.1581785992000E-01
   263  2.6200000000000E+00 -3.6429907344000E-02  2.2447496076000E-01
   264  2.6300000000000E+00 -3.2224981375000E-02  2.3248240958000E-01
   265  2.6400000000000E+00 -2.8161868561000E-02  2.3984566461000E-01
   266  2.6500000000000E+00 -2.4244034640000E-02  2.4656726069000E-01
   267  2.6600000000000E+00 -2.0471282888000E-02  2.5265894167000E-01
   268  2.6700000000000E+00 -1.6844781830000E-02  2.5812931088000E-01
   269  2.6800000000000E+00 -1.3366880850000E-02  2.6298453925000E-01
   270  2.6900000000000E+00 -1.0036994564000E-02  2.6723759398000E-01
   271  2.7000000000000E+00 -6.8551589700000E-03  2.7090026444000E-01
   272  2.7100000000000E+00 -3.8224493519000E-03  2.7398244570000E-01
   273  2.7200000000000E+00 -9.3815271344000E-04  2.7649780698000E-01
   274  2.7300000000000E+00  1.7988271272000E-03  2.7846100065000E-01
   275  2.7400000000000E+00  4.3886646471000E-03  2.7988522678000E-01
   276  2.7500000000000E+00  6.8321449952000E-03  2.8078494013000E-01
   277  2.7600000000000E+00  9.1314034947000E-03  2.8117708679000E-01
   278  2.7700000000000E+00  1.1287792589000E-02  2.8107759256000E-01
   279  2.7800000000000E+00  1.3302192445000E-02  2.8050203418000E-01
   280  2.7900000000000E+00  1.5177638711000E-02  2.7946898542000E-01
   281  2.8000000000000E+00  1.6916364120000E-02  2.7799624990000E-01
   282  2.8100000000000E+00  1.8519968711000E-02  2.7610144238000E-01
   283  2.8200000000000E+00  1.9991692052000E-02  2.7380367851000E-01
   284  2.8300000000000E+00  2.1334597455000E-02  2.7112222448000E-01
   285  2.8400000000000E+00  2.2551320954000E-02  2.6807654900000E-01
   286  2.8500000000000E+00  2.3644966537000E-02  2.6468644543000E-01
   287  2.8600000000000E+00  2.4619385056000E-02  2.6097202954000E-01
   288  2.8700000000000E+00  2.5478084555000E-02  2.5695378357000E-01
   289  2.8800000000000E+00  2.6224240837000E-02  2.5265316608000E-01
   290  2.8900000000000E+00  2.6862230579000E-02  2.4809012623000E-01
   291  2.9000000000000E+00  2.7396053915000E-02  2.4328566137000E-01
   292  2.9100000000000E+00  2.7829791395000E-02  2.3826311454000E-01
   293  2.9200000000000E+00  2.8167578352000E-02  2.3304247368000E-01
   294  2.9300000000000E+00  2.8413614812000E-02  2.2764257529000E-01
   295  2.9400000000000E+00  2.8572242235000E-02  2.2208461323000E-01
   296  2.9500000000000E+00  2.8648182955000E-02  2.1639342298000E-01
   297  2.9600000000000E+00  2.8645119060000E-02  2.1058213773000E-01
   298  2.9700000000000E+00  2.8567261940000E-02  2.0466913491000E-01
   299  2.9800000000000E+00  2.8419341333000E-02  1.9867684327000E-01
   300  2.9900000000000E+00  2.8205360550000E-02  1.9262126985000E-01
   301  3.0000000000000E+00  2.7929034877000E-02  1.8651568844000E-01
   302  3.0100000000000E+00  2.7594478561000E-02  1.8037639695000E-01
   303  3.0200000000000E+00  2.7206695522000E-02  1.7422581460000E-01
   304  3.0300000000000E+00  2.6768601355000E-02  1.6807122126000E-01
   305  3.0400000000000E+00  2.6284027386000E-02  1.6192620413000E-01
   306  3.0500000000000E+00  2.5757300227000E-02  1.5580726661000E-01
   307  3.0600000000000E+00  2.5192363354000E-02  1.4972833689000E-01
   308  3.0700000000000E+00  2.4592091184000E-02  1.4369648013000E-01
   309  3.0800000000000E+00  2.3960034114000E-02  1.3772280721000E-01
   310  3.0900000000000E+00  2.3300654442000E-02  1.3182335117000E-01
   311  3.1000000000000E+00  2.2616650154000E-02  1.2600419538000E-01
   312  3.1100000000000E+00  2.1910891566000E-02  1.2027223551000E-01
   313  3.1200000000000E+00  2.1186652148000E-02  1.1463642271000E-01
   314  3.1300000000000E+00  2.0448207597000E-02  1.0911056051000E-01
   315  3.1400000000000E+00  1.9697198246000E-02  1.0369525910000E-01
   316  3.1500000000000E+00  1.8936405856000E-02  9.8396671634000E-02
   317  3.1600000000000E+00  1.8169044098000E-02  9.3222754942000E-02
   318  3.1700000000000E+00  1.7398271871000E-02  8.8181125082000E-02
   319  3.1800000000000E+00  1.6625577466000E-02  8.3271937325000E-02
   320  3.1900000000000E+00  1.5853331713000E-02  7.8499136281000E-02
   321  3.2000000000000E+00  1.5084590599000E-02  7.3869224052000E-02
   322  3.2100000000000E+00  1.4321467511000E-02  6.9384986473000E-02
   323  3.2200000000000E+00  1.3565286371000E-02  6.5046083342000E-02
   324  3.2300000000000E+00  1.2817994137000E-02  6.0854492511000E-02
   325  3.2400000000000E+00  1.2082388950000E-02  5.6814907755000E-02
   326  3.2500000000000E+00  1.1359688426000E-02  5.2926779649000E-02
   327  3.2600000000000E+00  1.0651016627000E-02  4.9189182507000E-02
   328  3.2700000000000E+00  9.9578980899000E-03  4.5602431366000E-02
   329  3.2800000000000E+00  9.2827854350000E-03  4.2169226869000E-02
   330  3.2900000000000E+00  8.6261882885000E-03  3.8887091224000E-02
   331  3.3000000000000E+00  7.9889867810000E-03  3.5754463264000E-02
   332  3.3100000000000E+00  7.3722966181000E-03  3.2770342973000E-02
   333  3.3200000000000E+00  6.7781588321000E-03  2.9935448541000E-02
   334  3.3300000000000E+00  6.2065676741000E-03  2.7246531742000E-02
   335  3.3400000000000E+00  5.6581185153000E-03  2.4701442463000E-02
   336  3.3500000000000E+00  5.1335410798000E-03  2.2298235936000E-02
   337  3.3600000000000E+00  4.6344241815000E-03  2.0035853796000E-02
   338  3.3700000000000E+00  4.1604201560000E-03  1.7911087371000E-02
   339  3.3800000000000E+00  3.7118096009000E-03  1.5921363652000E-02
   340  3.3900000000000E+00  3.2889650554000E-03  1.4064162712000E-02
   341  3.4000000000000E+00  2.8930074874000E-03  1.2337030594000E-02
   342  3.4100000000000E+00  2.5233870668000E-03  1.0737219166000E-02
   343  3.4200000000000E+00  2.1800533618000E-03  9.2620091896000E-03
   344  3.4300000000000E+00  1.8630529215000E-03  7.9086504199000E-03
   345  3.4400000000000E+00  1.5730444833000E-03  6.6738115114000E-03
   346  3.4500000000000E+00  1.3093766753000E-03  5.5552543883000E-03
   347  3.4600000000000E+00  1.0716640432000E-03  4.5504614861000E-03
   348  3.4700000000000E+00  8.5965720131000E-04  3.6567488538000E-03
   349  3.4800000000000E+00  6.7357282565000E-04  2.8705041561000E-03
   350  3.4900000000000E+00  5.1272300866000E-04  2.1897595505000E-03
   351  3.5000000000000E+00  3.7639010651000E-04  1.6125494871000E-03
   352  3.5100000000000E+00  2.6405444869000E-04  1.1364832679000E-03
   353  3.5200000000000E+00  1.7988478391000E-04  7.7827225803000E-04
   354  3.5300000000000E+00  1.2124440872000E-04  5.2689178464000E-04
   355  3.5400000000000E+00  8.0371319019000E-05  3.5042783867000E-04
   356  3.5500000000000E+00  5.3587186089000E-05  2.3360411253000E-04
   357  3.5600000000000E+00  3.4786604030000E-05  1.5121388909000E-04
   358  3.5700000000000E+00  1.8237126810000E-05  7.9573167443000E-05
   359  3.5800000000000E+00  7.7595401730000E-06  3.4071168901000E-05
   360  3.5900000000000E+00  2.0927875899000E-06  9.3077924251000E-06
   361  3.6000000000000E+00 -1.4984308733000E-07 -6.5077712950000E-07
   362  3.6100000000000E+00 -2.3175698671000E-06 -1.0065338965000E-05
   363  3.6200000000000E+00 -2.7442281639000E-06 -1.1918340438000E-05
   364  3.6300000000000E+00 -1.9494831062000E-06 -8.4667170335000E-06
   365  3.6400000000000E+00 -4.5888625103000E-07 -1.9929693290000E-06
   366  3.6500000000000E+00  0.0000000000000E+00  0.0000000000000E+00
   367  3.6600000000000E+00  0.0000000000000E+00  0.0000000000000E+00
   368  3.6700000000000E+00  0.0000000000000E+00  0.0000000000000E+00
   369  3.6800000000000E+00  0.0000000000000E+00  0.0000000000000E+00
   370  3.6900000000000E+00  0.0000000000000E+00  0.0000000000000E+00
   371  3.7000000000000E+00  0.0000000000000E+00  0.0000000000000E+00
   372  3.7100000000000E+00  0.0000000000000E+00  0.0000000000000E+00
   373  3.7200000000000E+00  0.0000000000000E+00  0.0000000000000E+00
   374  3.7300000000000E+00  0.0000000000000E+00  0.0000000000000E+00
   375  3.7400000000000E+00  0.0000000000000E+00  0.0000000000000E+00
   376  3.7500000000000E+00  0.0000000000000E+00  0.0000000000000E+00
   377  3.7600000000000E+00  0.0000000000000E+00  0.0000000000000E+00
   378  3.7700000000000E+00  0.0000000000000E+00  0.0000000000000E+00
   379  3.7800000000000E+00  0.0000000000000E+00  0.0000000000000E+00
   380  3.7900000000000E+00  0.0000000000000E+00  0.0000000000000E+00
   381  3.8000000000000E+00  0.0000000000000E+00  0.0000000000000E+00
   382  3.8100000000000E+00  0.0000000000000E+00  0.0000000000000E+00
   383  3.8200000000000E+00  0.0000000000000E+00  0.0000000000000E+00
   384  3.8300000000000E+00  0.0000000000000E+00  0.0000000000000E+00
   385  3.8400000000000E+00  0.0000000000000E+00  0.0000000000000E+00
   386  3.8500000000000E+00  0.0000000000000E+00  0.0000000000000E+00
   387  3.8600000000000E+00  0.0000000000000E+00  0.0000000000000E+00
   388  3.8700000000000E+00  0.0000000000000E+00  0.0000000000000E+00
   389  3.8800000000000E+00  0.0000000000000E+00  0.0000000000000E+00
   390  3.8900000000000E+00  0.0000000000000E+00  0.0000000000000E+00
   391  3.9000000000000E+00  0.0000000000000E+00  0.0000000000000E+00
   392  3.9100000000000E+00  0.0000000000000E+00  0.0000000000000E+00
   393  3.9200000000000E+00  0.0000000000000E+00  0.0000000000000E+00
   394  3.9300000000000E+00  0.0000000000000E+00  0.0000000000000E+00
   395  3.9400000000000E+00  0.0000000000000E+00  0.0000000000000E+00
   396  3.9500000000000E+00  0.0000000000000E+00  0.0000000000000E+00
   397  3.9600000000000E+00  0.0000000000000E+00  0.0000000000000E+00
   398  3.9700000000000E+00  0.0000000000000E+00  0.0000000000000E+00
   399  3.9800000000000E+00  0.0000000000000E+00  0.0000000000000E+00
   400  3.9900000000000E+00  0.0000000000000E+00  0.0000000000000E+00
   401  4.0000000000000E+00  0.0000000000000E+00  0.0000000000000E+00
   402  4.0100000000000E+00  0.0000000000000E+00  0.0000000000000E+00
   403  4.0200000000000E+00  0.0000000000000E+00  0.0000000000000E+00
   404  4.0300000000000E+00  0.0000000000000E+00  0.0000000000000E+00
   405  4.0400000000000E+00  0.0000000000000E+00  0.0000000000000E+00
   406  4.0500000000000E+00  0.0000000000000E+00  0.0000000000000E+00
   407  4.0600000000000E+00  0.0000000000000E+00  0.0000000000000E+00
   408  4.0700000000000E+00  0.0000000000000E+00  0.0000000000000E+00
   409  4.0800000000000E+00  0.0000000000000E+00  0.0000000000000E+00
   410  4.0900000000000E+00  0.0000000000000E+00  0.0000000000000E+00
   411  4.1000000000000E+00  0.0000000000000E+00  0.0000000000000E+00
   412  4.1100000000000E+00  0.0000000000000E+00  0.0000000000000E+00
   413  4.1200000000000E+00  0.0000000000000E+00  0.0000000000000E+00
   414  4.1300000000000E+00  0.0000000000000E+00  0.0000000000000E+00
   415  4.1400000000000E+00  0.0000000000000E+00  0.0000000000000E+00
   416  4.1500000000000E+00  0.0000000000000E+00  0.0000000000000E+00
   417  4.1600000000000E+00  0.0000000000000E+00  0.0000000000000E+00
   418  4.1700000000000E+00  0.0000000000000E+00  0.0000000000000E+00
   419  4.1800000000000E+00  0.0000000000000E+00  0.0000000000000E+00
   420  4.1900000000000E+00  0.0000000000000E+00  0.0000000000000E+00
   421  4.2000000000000E+00  0.0000000000000E+00  0.0000000000000E+00
   422  4.2100000000000E+00  0.0000000000000E+00  0.0000000000000E+00
   423  4.2200000000000E+00  0.0000000000000E+00  0.0000000000000E+00