Bi   ONCVPSP-2.1.1   r_core=    3.59885 3.68574 3.00923 3.35027
    83.0000   15.0000   150105   zatom,zion,pspd
    8   11   3   4   600   0   pspcod,pspxc,lmax,lloc,mmax,r2well
    5.99000000   0.00000000   0.00000000   rchrg fchrg qchrg
    2   2   2   2   0   nproj
    1   1   extension_switch
       0                         2.3581579592000E+00  3.1688519219000E-01
     1  0.0000000000000E+00  0.0000000000000E+00  0.0000000000000E+00
     2  1.0000000000000E-02  1.5370568117000E-02 -1.2629414186000E-02
     3  2.0000000000000E-02  3.0743561711000E-02 -2.5233114358000E-02
     4  3.0000000000000E-02  4.6121388790000E-02 -3.7785443593000E-02
     5  4.0000000000000E-02  6.1506422473000E-02 -5.0260859033000E-02
     6  5.0000000000000E-02  7.6900983635000E-02 -6.2633988634000E-02
     7  6.0000000000000E-02  9.2307323676000E-02 -7.4879687560000E-02
     8  7.0000000000000E-02  1.0772760745000E-01 -8.6973094135000E-02
     9  8.0000000000000E-02  1.2316389638000E-01 -9.8889685204000E-02
    10  9.0000000000000E-02  1.3861813180000E-01 -1.1060533083000E-01
    11  1.0000000000000E-01  1.5409211860000E-01 -1.2209634817000E-01
    12  1.1000000000000E-01  1.6958750912000E-01 -1.3333955449000E-01
    13  1.2000000000000E-01  1.8510578743000E-01 -1.4431231912000E-01
    14  1.3000000000000E-01  2.0064825402000E-01 -1.5499261435000E-01
    15  1.4000000000000E-01  2.1621601080000E-01 -1.6535906503000E-01
    16  1.5000000000000E-01  2.3180994664000E-01 -1.7539099692000E-01
    17  1.6000000000000E-01  2.4743072337000E-01 -1.8506848360000E-01
    18  1.7000000000000E-01  2.6307876230000E-01 -1.9437239184000E-01
    19  1.8000000000000E-01  2.7875423125000E-01 -2.0328442539000E-01
    20  1.9000000000000E-01  2.9445703216000E-01 -2.1178716705000E-01
    21  2.0000000000000E-01  3.1018678941000E-01 -2.1986411903000E-01
    22  2.1000000000000E-01  3.2594283859000E-01 -2.2749974127000E-01
    23  2.2000000000000E-01  3.4172421611000E-01 -2.3467948799000E-01
    24  2.3000000000000E-01  3.5752964940000E-01 -2.4138984217000E-01
    25  2.4000000000000E-01  3.7335754779000E-01 -2.4761834788000E-01
    26  2.5000000000000E-01  3.8920599429000E-01 -2.5335364039000E-01
    27  2.6000000000000E-01  4.0507273787000E-01 -2.5858547436000E-01
    28  2.7000000000000E-01  4.2095518678000E-01 -2.6330474929000E-01
    29  2.8000000000000E-01  4.3685040248000E-01 -2.6750353296000E-01
    30  2.9000000000000E-01  4.5275509447000E-01 -2.7117508237000E-01
    31  3.0000000000000E-01  4.6866561592000E-01 -2.7431386223000E-01
    32  3.1000000000000E-01  4.8457796013000E-01 -2.7691556101000E-01
    33  3.2000000000000E-01  5.0048775788000E-01 -2.7897710440000E-01
    34  3.3000000000000E-01  5.1639027566000E-01 -2.8049666616000E-01
    35  3.4000000000000E-01  5.3228041464000E-01 -2.8147367678000E-01
    36  3.5000000000000E-01  5.4815271074000E-01 -2.8190882888000E-01
    37  3.6000000000000E-01  5.6400133534000E-01 -2.8180408076000E-01
    38  3.7000000000000E-01  5.7982009717000E-01 -2.8116265638000E-01
    39  3.8000000000000E-01  5.9560244474000E-01 -2.7998904396000E-01
    40  3.9000000000000E-01  6.1134147001000E-01 -2.7828899066000E-01
    41  4.0000000000000E-01  6.2702991271000E-01 -2.7606949538000E-01
    42  4.1000000000000E-01  6.4266016564000E-01 -2.7333879881000E-01
    43  4.2000000000000E-01  6.5822428087000E-01 -2.7010637078000E-01
    44  4.3000000000000E-01  6.7371397675000E-01 -2.6638289506000E-01
    45  4.4000000000000E-01  6.8912064585000E-01 -2.6218025159000E-01
    46  4.5000000000000E-01  7.0443536371000E-01 -2.5751149617000E-01
    47  4.6000000000000E-01  7.1964889849000E-01 -2.5239083763000E-01
    48  4.7000000000000E-01  7.3475172140000E-01 -2.4683361254000E-01
    49  4.8000000000000E-01  7.4973401797000E-01 -2.4085625750000E-01
    50  4.9000000000000E-01  7.6458569988000E-01 -2.3447627961000E-01
    51  5.0000000000000E-01  7.7929641813000E-01 -2.2771222337000E-01
    52  5.1000000000000E-01  7.9385557679000E-01 -2.2058363560000E-01
    53  5.2000000000000E-01  8.0825234648000E-01 -2.1311103065000E-01
    54  5.3000000000000E-01  8.2247568006000E-01 -2.0531584989000E-01
    55  5.4000000000000E-01  8.3651432914000E-01 -1.9722041889000E-01
    56  5.5000000000000E-01  8.5035685733000E-01 -1.8884791189000E-01
    57  5.6000000000000E-01  8.6399166279000E-01 -1.8022229370000E-01
    58  5.7000000000000E-01  8.7740698858000E-01 -1.7136829053000E-01
    59  5.8000000000000E-01  8.9059094921000E-01 -1.6231132120000E-01
    60  5.9000000000000E-01  9.0353153981000E-01 -1.5307747077000E-01
    61  6.0000000000000E-01  9.1621666581000E-01 -1.4369341279000E-01
    62  6.1000000000000E-01  9.2863415304000E-01 -1.3418638056000E-01
    63  6.2000000000000E-01  9.4077177383000E-01 -1.2458409773000E-01
    64  6.3000000000000E-01  9.5261726740000E-01 -1.1491472292000E-01
    65  6.4000000000000E-01  9.6415835445000E-01 -1.0520680945000E-01
    66  6.5000000000000E-01  9.7538276751000E-01 -9.5489224040000E-02
    67  6.6000000000000E-01  9.8627826760000E-01 -8.5791100547000E-02
    68  6.7000000000000E-01  9.9683266373000E-01 -7.6141786804000E-02
    69  6.8000000000000E-01  1.0070338364000E+00 -6.6570780180000E-02
    70  6.9000000000000E-01  1.0168697661000E+00 -5.7107650860000E-02
    71  7.0000000000000E-01  1.0263285467000E+00 -4.7782002777000E-02
    72  7.1000000000000E-01  1.0353984110000E+00 -3.8623405199000E-02
    73  7.2000000000000E-01  1.0440677501000E+00 -2.9661337833000E-02
    74  7.3000000000000E-01  1.0523251426000E+00 -2.0925112685000E-02
    75  7.4000000000000E-01  1.0601593732000E+00 -1.2443819678000E-02
    76  7.5000000000000E-01  1.0675594531000E+00 -4.2462725374000E-03
    77  7.6000000000000E-01  1.0745146432000E+00  3.6390563055000E-03
    78  7.7000000000000E-01  1.0810144757000E+00  1.1184096224000E-02
    79  7.8000000000000E-01  1.0870487760000E+00  1.8361238309000E-02
    80  7.9000000000000E-01  1.0926076838000E+00  2.5143394578000E-02
    81  8.0000000000000E-01  1.0976816744000E+00  3.1504056337000E-02
    82  8.1000000000000E-01  1.1022615787000E+00  3.7417351611000E-02
    83  8.2000000000000E-01  1.1063386035000E+00  4.2858100614000E-02
    84  8.3000000000000E-01  1.1099043515000E+00  4.7801872123000E-02
    85  8.4000000000000E-01  1.1129508421000E+00  5.2225040726000E-02
    86  8.5000000000000E-01  1.1154705271000E+00  5.6104832908000E-02
    87  8.6000000000000E-01  1.1174563106000E+00  5.9419380771000E-02
    88  8.7000000000000E-01  1.1189015642000E+00  6.2147766412000E-02
    89  8.8000000000000E-01  1.1198001490000E+00  6.4270082799000E-02
    90  8.9000000000000E-01  1.1201464277000E+00  6.5767468672000E-02
    91  9.0000000000000E-01  1.1199352814000E+00  6.6622155564000E-02
    92  9.1000000000000E-01  1.1191621240000E+00  6.6817509801000E-02
    93  9.2000000000000E-01  1.1178229168000E+00  6.6338072381000E-02
    94  9.3000000000000E-01  1.1159141814000E+00  6.5169596646000E-02
    95  9.4000000000000E-01  1.1134330118000E+00  6.3299083626000E-02
    96  9.5000000000000E-01  1.1103770863000E+00  6.0714814978000E-02
    97  9.6000000000000E-01  1.1067446775000E+00  5.7406383417000E-02
    98  9.7000000000000E-01  1.1025346624000E+00  5.3364720556000E-02
    99  9.8000000000000E-01  1.0977465258000E+00  4.8582108814000E-02
   100  9.9000000000000E-01  1.0923803734000E+00  4.3052218753000E-02
   101  1.0000000000000E+00  1.0864369525000E+00  3.6770168438000E-02
   102  1.0100000000000E+00  1.0799176352000E+00  2.9732478592000E-02
   103  1.0200000000000E+00  1.0728244313000E+00  2.1937109687000E-02
   104  1.0300000000000E+00  1.0651599918000E+00  1.3383473160000E-02
   105  1.0400000000000E+00  1.0569276040000E+00  4.0724201945000E-03
   106  1.0500000000000E+00  1.0481312029000E+00 -5.9937253379000E-03
   107  1.0600000000000E+00  1.0387753897000E+00 -1.6811111246000E-02
   108  1.0700000000000E+00  1.0288653984000E+00 -2.8374449758000E-02
   109  1.0800000000000E+00  1.0184071057000E+00 -4.0676987129000E-02
   110  1.0900000000000E+00  1.0074070160000E+00 -5.3710545167000E-02
   111  1.1000000000000E+00  9.9587228945000E-01 -6.7465436000000E-02
   112  1.1100000000000E+00  9.8381072564000E-01 -8.1930506989000E-02
   113  1.1200000000000E+00  9.7123073920000E-01 -9.7093206605000E-02
   114  1.1300000000000E+00  9.5814135344000E-01 -1.1293960096000E-01
   115  1.1400000000000E+00  9.4455221306000E-01 -1.2945433263000E-01
   116  1.1500000000000E+00  9.3047357946000E-01 -1.4662062692000E-01
   117  1.1600000000000E+00  9.1591629077000E-01 -1.6442040607000E-01
   118  1.1700000000000E+00  9.0089175434000E-01 -1.8283431007000E-01
   119  1.1800000000000E+00  8.8541196874000E-01 -2.0184161914000E-01
   120  1.1900000000000E+00  8.6948948151000E-01 -2.2142037317000E-01
   121  1.2000000000000E+00  8.5313737149000E-01 -2.4154742334000E-01
   122  1.2100000000000E+00  8.3636924838000E-01 -2.6219842871000E-01
   123  1.2200000000000E+00  8.1919923676000E-01 -2.8334787600000E-01
   124  1.2300000000000E+00  8.0164194284000E-01 -3.0496919094000E-01
   125  1.2400000000000E+00  7.8371246100000E-01 -3.2703472433000E-01
   126  1.2500000000000E+00  7.6542632772000E-01 -3.4951582779000E-01
   127  1.2600000000000E+00  7.4679951257000E-01 -3.7238291733000E-01
   128  1.2700000000000E+00  7.2784843383000E-01 -3.9560543418000E-01
   129  1.2800000000000E+00  7.0858985819000E-01 -4.1915205685000E-01
   130  1.2900000000000E+00  6.8904093467000E-01 -4.4299065517000E-01
   131  1.3000000000000E+00  6.6921922271000E-01 -4.6708822158000E-01
   132  1.3100000000000E+00  6.4914251013000E-01 -4.9141128545000E-01
   133  1.3200000000000E+00  6.2882894100000E-01 -5.1592563880000E-01
   134  1.3300000000000E+00  6.0829698470000E-01 -5.4059640075000E-01
   135  1.3400000000000E+00  5.8756524279000E-01 -5.6538847620000E-01
   136  1.3500000000000E+00  5.6665266439000E-01 -5.9026605730000E-01
   137  1.3600000000000E+00  5.4557835712000E-01 -6.1519306673000E-01
   138  1.3700000000000E+00  5.2436152781000E-01 -6.4013330802000E-01
   139  1.3800000000000E+00  5.0302174258000E-01 -6.6504984447000E-01
   140  1.3900000000000E+00  4.8157843079000E-01 -6.8990618759000E-01
   141  1.4000000000000E+00  4.6005127975000E-01 -7.1466535651000E-01
   142  1.4100000000000E+00  4.3846006980000E-01 -7.3929027128000E-01
   143  1.4200000000000E+00  4.1682441576000E-01 -7.6374438035000E-01
   144  1.4300000000000E+00  3.9516430674000E-01 -7.8799035837000E-01
   145  1.4400000000000E+00  3.7349930793000E-01 -8.1199203375000E-01
   146  1.4500000000000E+00  3.5184923761000E-01 -8.3571275484000E-01
   147  1.4600000000000E+00  3.3023376456000E-01 -8.5911636231000E-01
   148  1.4700000000000E+00  3.0867231294000E-01 -8.8216741885000E-01
   149  1.4800000000000E+00  2.8718457622000E-01 -9.0482996804000E-01
   150  1.4900000000000E+00  2.6578951975000E-01 -9.2706994161000E-01
   151  1.5000000000000E+00  2.4450657732000E-01 -9.4885227109000E-01
   152  1.5100000000000E+00  2.2335438387000E-01 -9.7014394366000E-01
   153  1.5200000000000E+00  2.0235178658000E-01 -9.9091156234000E-01
   154  1.5300000000000E+00  1.8151715081000E-01 -1.0111230186000E+00
   155  1.5400000000000E+00  1.6086856617000E-01 -1.0307469897000E+00
   156  1.5500000000000E+00  1.4042404210000E-01 -1.0497524739000E+00
   157  1.5600000000000E+00  1.2020080589000E-01 -1.0681104613000E+00
   158  1.5700000000000E+00  1.0021641149000E-01 -1.0857912897000E+00
   159  1.5800000000000E+00  8.0487138233000E-02 -1.1027684508000E+00
   160  1.5900000000000E+00  6.1029977486000E-02 -1.1190138696000E+00
   161  1.6000000000000E+00  4.1860247814000E-02 -1.1345035526000E+00
   162  1.6100000000000E+00  2.2994094962000E-02 -1.1492116714000E+00
   163  1.6200000000000E+00  4.4459934321000E-03 -1.1631164527000E+00
   164  1.6300000000000E+00 -1.3768929041000E-02 -1.1761947048000E+00
   165  1.6400000000000E+00 -3.1637097941000E-02 -1.1884269887000E+00
   166  1.6500000000000E+00 -4.9144470509000E-02 -1.1997928852000E+00
   167  1.6600000000000E+00 -6.6278467731000E-02 -1.2102754929000E+00
   168  1.6700000000000E+00 -8.3026170331000E-02 -1.2198572317000E+00
   169  1.6800000000000E+00 -9.9376091426000E-02 -1.2285239381000E+00
   170  1.6900000000000E+00 -1.1531645889000E-01 -1.2362609010000E+00
   171  1.7000000000000E+00 -1.3083697320000E-01 -1.2430568856000E+00
   172  1.7100000000000E+00 -1.4592701990000E-01 -1.2489000481000E+00
   173  1.7200000000000E+00 -1.6057757810000E-01 -1.2537822573000E+00
   174  1.7300000000000E+00 -1.7477919051000E-01 -1.2576945095000E+00
   175  1.7400000000000E+00 -1.8852419912000E-01 -1.2606319267000E+00
   176  1.7500000000000E+00 -2.0180429508000E-01 -1.2625883008000E+00
   177  1.7600000000000E+00 -2.1461325671000E-01 -1.2635621230000E+00
   178  1.7700000000000E+00 -2.2694391073000E-01 -1.2635499283000E+00
   179  1.7800000000000E+00 -2.3879149644000E-01 -1.2625535778000E+00
   180  1.7900000000000E+00 -2.5015006309000E-01 -1.2605725112000E+00
   181  1.8000000000000E+00 -2.6101616570000E-01 -1.2576115943000E+00
   182  1.8100000000000E+00 -2.7138535130000E-01 -1.2536737136000E+00
   183  1.8200000000000E+00 -2.8125523887000E-01 -1.2487661662000E+00
   184  1.8300000000000E+00 -2.9062300198000E-01 -1.2428954890000E+00
   185  1.8400000000000E+00 -2.9948725793000E-01 -1.2360712498000E+00
   186  1.8500000000000E+00 -3.0784685238000E-01 -1.2283036406000E+00
   187  1.8600000000000E+00 -3.1570134385000E-01 -1.2196043694000E+00
   188  1.8700000000000E+00 -3.2305126351000E-01 -1.2099872002000E+00
   189  1.8800000000000E+00 -3.2989707546000E-01 -1.1994659090000E+00
   190  1.8900000000000E+00 -3.3624096492000E-01 -1.1880576358000E+00
   191  1.9000000000000E+00 -3.4208430034000E-01 -1.1757782327000E+00
   192  1.9100000000000E+00 -3.4743066953000E-01 -1.1626476292000E+00
   193  1.9200000000000E+00 -3.5228287990000E-01 -1.1486846442000E+00
   194  1.9300000000000E+00 -3.5664530035000E-01 -1.1339108463000E+00
   195  1.9400000000000E+00 -3.6052237189000E-01 -1.1183481949000E+00
   196  1.9500000000000E+00 -3.6391915833000E-01 -1.1020197887000E+00
   197  1.9600000000000E+00 -3.6684165395000E-01 -1.0849503543000E+00
   198  1.9700000000000E+00 -3.6929564183000E-01 -1.0671646333000E+00
   199  1.9800000000000E+00 -3.7128840018000E-01 -1.0486894827000E+00
   200  1.9900000000000E+00 -3.7282680057000E-01 -1.0295517358000E+00
   201  2.0000000000000E+00 -3.7391887970000E-01 -1.0097796157000E+00
   202  2.0100000000000E+00 -3.7457282646000E-01 -9.8940200502000E-01
   203  2.0200000000000E+00 -3.7479724780000E-01 -9.6844843440000E-01
   204  2.0300000000000E+00 -3.7460150186000E-01 -9.4694919322000E-01
   205  2.0400000000000E+00 -3.7399488173000E-01 -9.2493546260000E-01
   206  2.0500000000000E+00 -3.7298757315000E-01 -9.0243838005000E-01
   207  2.0600000000000E+00 -3.7158983871000E-01 -8.7949032317000E-01
   208  2.0700000000000E+00 -3.6981236289000E-01 -8.5612361346000E-01
   209  2.0800000000000E+00 -3.6766621584000E-01 -8.3237087105000E-01
   210  2.0900000000000E+00 -3.6516275538000E-01 -8.0826614599000E-01
   211  2.1000000000000E+00 -3.6231355967000E-01 -7.8384183472000E-01
   212  2.1100000000000E+00 -3.5913064736000E-01 -7.5913253245000E-01
   213  2.1200000000000E+00 -3.5562610846000E-01 -7.3417169126000E-01
   214  2.1300000000000E+00 -3.5181225674000E-01 -7.0899271731000E-01
   215  2.1400000000000E+00 -3.4770197311000E-01 -6.8363119778000E-01
   216  2.1500000000000E+00 -3.4330765266000E-01 -6.5811914142000E-01
   217  2.1600000000000E+00 -3.3864249749000E-01 -6.3249163744000E-01
   218  2.1700000000000E+00 -3.3371951761000E-01 -6.0678219876000E-01
   219  2.1800000000000E+00 -3.2855159406000E-01 -5.8102304126000E-01
   220  2.1900000000000E+00 -3.2315265663000E-01 -5.5525003708000E-01
   221  2.2000000000000E+00 -3.1753536628000E-01 -5.2949347538000E-01
   222  2.2100000000000E+00 -3.1171332725000E-01 -5.0378669679000E-01
   223  2.2200000000000E+00 -3.0570025057000E-01 -4.7816294537000E-01
   224  2.2300000000000E+00 -2.9950885808000E-01 -4.5265138108000E-01
   225  2.2400000000000E+00 -2.9315327153000E-01 -4.2728560653000E-01
   226  2.2500000000000E+00 -2.8664641377000E-01 -4.0209470651000E-01
   227  2.2600000000000E+00 -2.8000116384000E-01 -3.7710717999000E-01
   228  2.2700000000000E+00 -2.7323195688000E-01 -3.5235621652000E-01
   229  2.2800000000000E+00 -2.6635058977000E-01 -3.2786608403000E-01
   230  2.2900000000000E+00 -2.5937040117000E-01 -3.0366559035000E-01
   231  2.3000000000000E+00 -2.5230484457000E-01 -2.7978353934000E-01
   232  2.3100000000000E+00 -2.4516545292000E-01 -2.5624243485000E-01
   233  2.3200000000000E+00 -2.3796559304000E-01 -2.3307000194000E-01
   234  2.3300000000000E+00 -2.3071740898000E-01 -2.1028999631000E-01
   235  2.3400000000000E+00 -2.2343213862000E-01 -1.8792314535000E-01
   236  2.3500000000000E+00 -2.1612299516000E-01 -1.6599559437000E-01
   237  2.3600000000000E+00 -2.0880061453000E-01 -1.4452578935000E-01
   238  2.3700000000000E+00 -2.0147585113000E-01 -1.2353248939000E-01
   239  2.3800000000000E+00 -1.9416157589000E-01 -1.0303977526000E-01
   240  2.3900000000000E+00 -1.8686680931000E-01 -8.3060779125000E-02
   241  2.4000000000000E+00 -1.7960209494000E-01 -6.3612533868000E-02
   242  2.4100000000000E+00 -1.7237920914000E-01 -4.4715094065000E-02
   243  2.4200000000000E+00 -1.6520608693000E-01 -2.6377970868000E-02
   244  2.4300000000000E+00 -1.5809269421000E-01 -8.6157804501000E-03
   245  2.4400000000000E+00 -1.5104937176000E-01  8.5561626687000E-03
   246  2.4500000000000E+00 -1.4408315678000E-01  2.5131328288000E-02
   247  2.4600000000000E+00 -1.3720318595000E-01  4.1098100389000E-02
   248  2.4700000000000E+00 -1.3041836916000E-01  5.6445683670000E-02
   249  2.4800000000000E+00 -1.2373475099000E-01  7.1170654063000E-02
   250  2.4900000000000E+00 -1.1716048376000E-01  8.5264684356000E-02
   251  2.5000000000000E+00 -1.1070310960000E-01  9.8721150694000E-02
   252  2.5100000000000E+00 -1.0436758465000E-01  1.1153984263000E-01
   253  2.5200000000000E+00 -9.8160933004000E-02  1.2371594984000E-01
   254  2.5300000000000E+00 -9.2089436339000E-02  1.3524659564000E-01
   255  2.5400000000000E+00 -8.6156873898000E-02  1.4613484718000E-01
   256  2.5500000000000E+00 -8.0369014227000E-02  1.5637956413000E-01
   257  2.5600000000000E+00 -7.4731014870000E-02  1.6598116531000E-01
   258  2.5700000000000E+00 -6.9245405758000E-02  1.7494599285000E-01
   259  2.5800000000000E+00 -6.3916593858000E-02  1.8327664078000E-01
   260  2.5900000000000E+00 -5.8748761927000E-02  1.9097639382000E-01
   261  2.6000000000000E+00 -5.3743142531000E-02  1.9805477974000E-01
   262  2.6100000000000E+00 -4.8902702048000E-02  2.0451808792000E-01
   263  2.6200000000000E+00 -4.4230792750000E-02  2.1037211109000E-01
   264  2.6300000000000E+00 -3.9727334365000E-02  2.1562937076000E-01
   265  2.6400000000000E+00 -3.5393807734000E-02  2.2029969327000E-01
   266  2.6500000000000E+00 -3.1232853943000E-02  2.2439114071000E-01
   267  2.6600000000000E+00 -2.7243104651000E-02  2.2791892402000E-01
   268  2.6700000000000E+00 -2.3424699809000E-02  2.3089588982000E-01
   269  2.6800000000000E+00 -1.9779201299000E-02  2.3333296105000E-01
   270  2.6900000000000E+00 -1.6304465552000E-02  2.3524694854000E-01
   271  2.7000000000000E+00 -1.2999349793000E-02  2.3665338103000E-01
   272  2.7100000000000E+00 -9.8638751737000E-03  2.3756651919000E-01
   273  2.7200000000000E+00 -6.8957146371000E-03  2.3800387628000E-01
   274  2.7300000000000E+00 -4.0923575471000E-03  2.3798345437000E-01
   275  2.7400000000000E+00 -1.4523075519000E-03  2.3752245054000E-01
   276  2.7500000000000E+00  1.0268750593000E-03  2.3663918738000E-01
   277  2.7600000000000E+00  3.3489169702000E-03  2.3535342186000E-01
   278  2.7700000000000E+00  5.5167579184000E-03  2.3368475516000E-01
   279  2.7800000000000E+00  7.5331512537000E-03  2.3165336038000E-01
   280  2.7900000000000E+00  9.4024389042000E-03  2.2927840594000E-01
   281  2.8000000000000E+00  1.1128402973000E-02  2.2657996386000E-01
   282  2.8100000000000E+00  1.2714690906000E-02  2.2358067946000E-01
   283  2.8200000000000E+00  1.4165538807000E-02  2.2029819249000E-01
   284  2.8300000000000E+00  1.5485146115000E-02  2.1675168923000E-01
   285  2.8400000000000E+00  1.6677775240000E-02  2.1296281825000E-01
   286  2.8500000000000E+00  1.7747741396000E-02  2.0895086662000E-01
   287  2.8600000000000E+00  1.8699411760000E-02  2.0473267990000E-01
   288  2.8700000000000E+00  1.9537282298000E-02  2.0032756218000E-01
   289  2.8800000000000E+00  2.0266112604000E-02  1.9575766238000E-01
   290  2.8900000000000E+00  2.0890118746000E-02  1.9103670239000E-01
   291  2.9000000000000E+00  2.1413849138000E-02  1.8618220850000E-01
   292  2.9100000000000E+00  2.1842284924000E-02  1.8121502474000E-01
   293  2.9200000000000E+00  2.2179790776000E-02  1.7615025308000E-01
   294  2.9300000000000E+00  2.2430676450000E-02  1.7100210240000E-01
   295  2.9400000000000E+00  2.2599651692000E-02  1.6578755059000E-01
   296  2.9500000000000E+00  2.2691790567000E-02  1.6052573256000E-01
   297  2.9600000000000E+00  2.2710810306000E-02  1.5522646370000E-01
   298  2.9700000000000E+00  2.2661113570000E-02  1.4990385760000E-01
   299  2.9800000000000E+00  2.2547797595000E-02  1.4457573079000E-01
   300  2.9900000000000E+00  2.2374832770000E-02  1.3925336915000E-01
   301  3.0000000000000E+00  2.2145996512000E-02  1.3394677486000E-01
   302  3.0100000000000E+00  2.1865568899000E-02  1.2866851400000E-01
   303  3.0200000000000E+00  2.1538688890000E-02  1.2343524052000E-01
   304  3.0300000000000E+00  2.1168120564000E-02  1.1825171399000E-01
   305  3.0400000000000E+00  2.0757686368000E-02  1.1312776776000E-01
   306  3.0500000000000E+00  2.0311863335000E-02  1.0807601697000E-01
   307  3.0600000000000E+00  1.9834404853000E-02  1.0310572897000E-01
   308  3.0700000000000E+00  1.9328021234000E-02  9.8221402757000E-02
   309  3.0800000000000E+00  1.8796149602000E-02  9.3430640277000E-02
   310  3.0900000000000E+00  1.8243355689000E-02  8.8745499365000E-02
   311  3.1000000000000E+00  1.7671866556000E-02  8.4168465867000E-02
   312  3.1100000000000E+00  1.7084372364000E-02  7.9703789009000E-02
   313  3.1200000000000E+00  1.6484027129000E-02  7.5357426513000E-02
   314  3.1300000000000E+00  1.5874841339000E-02  7.1138399294000E-02
   315  3.1400000000000E+00  1.5258065633000E-02  6.7045452264000E-02
   316  3.1500000000000E+00  1.4636176261000E-02  6.3081755155000E-02
   317  3.1600000000000E+00  1.4012207313000E-02  5.9252257148000E-02
   318  3.1700000000000E+00  1.3388837402000E-02  5.5560634390000E-02
   319  3.1800000000000E+00  1.2767154325000E-02  5.2005161221000E-02
   320  3.1900000000000E+00  1.2149141982000E-02  4.8587021992000E-02
   321  3.2000000000000E+00  1.1537596410000E-02  4.5309743018000E-02
   322  3.2100000000000E+00  1.0934012134000E-02  4.2172899268000E-02
   323  3.2200000000000E+00  1.0339300996000E-02  3.9174254653000E-02
   324  3.2300000000000E+00  9.7549588179000E-03  3.6313235729000E-02
   325  3.2400000000000E+00  9.1834298423000E-03  3.3591630092000E-02
   326  3.2500000000000E+00  8.6252569848000E-03  3.1006284552000E-02
   327  3.2600000000000E+00  8.0811412058000E-03  2.8554381809000E-02
   328  3.2700000000000E+00  7.5521136456000E-03  2.6233881507000E-02
   329  3.2800000000000E+00  7.0401754764000E-03  2.4044671534000E-02
   330  3.2900000000000E+00  6.5451842357000E-03  2.1982174291000E-02
   331  3.3000000000000E+00  6.0675923620000E-03  2.0042970115000E-02
   332  3.3100000000000E+00  5.6080060161000E-03  1.8223891340000E-02
   333  3.3200000000000E+00  5.1679257492000E-03  1.6522947421000E-02
   334  3.3300000000000E+00  4.7467815493000E-03  1.4935222940000E-02
   335  3.3400000000000E+00  4.3447522127000E-03  1.3456778184000E-02
   336  3.3500000000000E+00  3.9620712399000E-03  1.2083688861000E-02
   337  3.3600000000000E+00  3.5997199344000E-03  1.0812295588000E-02
   338  3.3700000000000E+00  3.2569186289000E-03  9.6381144330000E-03
   339  3.3800000000000E+00  2.9335696636000E-03  8.5568978027000E-03
   340  3.3900000000000E+00  2.6295944048000E-03  7.5643465350000E-03
   341  3.4000000000000E+00  2.3454757556000E-03  6.6555216741000E-03
   342  3.4100000000000E+00  2.0803816468000E-03  5.8267670306000E-03
   343  3.4200000000000E+00  1.8339612789000E-03  5.0738688585000E-03
   344  3.4300000000000E+00  1.6058877223000E-03  4.3925244798000E-03
   345  3.4400000000000E+00  1.3962025811000E-03  3.7770627377000E-03
   346  3.4500000000000E+00  1.2041084284000E-03  3.2246690667000E-03
   347  3.4600000000000E+00  1.0290484943000E-03  2.7316078425000E-03
   348  3.4700000000000E+00  8.7050959601000E-04  2.2939118962000E-03
   349  3.4800000000000E+00  7.2817819316000E-04  1.9058444086000E-03
   350  3.4900000000000E+00  6.0131118898000E-04  1.5651105088000E-03
   351  3.5000000000000E+00  4.8920836241000E-04  1.2689441603000E-03
   352  3.5100000000000E+00  3.9122551841000E-04  1.0139992379000E-03
   353  3.5200000000000E+00  3.0679677781000E-04  7.9519337313000E-04
   354  3.5300000000000E+00  2.3520287834000E-04  6.1020939234000E-04
   355  3.5400000000000E+00  1.7566335722000E-04  4.5770439732000E-04
   356  3.5500000000000E+00  1.2744688400000E-04  3.3516622229000E-04
   357  3.5600000000000E+00  9.0968173030000E-05  2.4226296113000E-04
   358  3.5700000000000E+00  6.5795052699000E-05  1.7702817277000E-04
   359  3.5800000000000E+00  4.8316635206000E-05  1.3139737764000E-04
   360  3.5900000000000E+00  3.6729865118000E-05  1.0075312527000E-04
   361  3.6000000000000E+00  2.8616824195000E-05  7.8870737536000E-05
   362  3.6100000000000E+00  1.8522753449000E-05  5.1582810751000E-05
   363  3.6200000000000E+00  1.0612425250000E-05  2.9886213833000E-05
   364  3.6300000000000E+00  4.7065194665000E-06  1.3415533487000E-05
   365  3.6400000000000E+00  6.2353542381000E-07  1.8008053113000E-06
   366  3.6500000000000E+00 -1.4046600955000E-06 -3.8669366980000E-06
   367  3.6600000000000E+00 -2.0015233087000E-06 -5.5100618002000E-06
   368  3.6700000000000E+00 -1.6371961392000E-06 -4.5070931059000E-06
   369  3.6800000000000E+00 -6.7700200117000E-07 -1.8637419055000E-06
   370  3.6900000000000E+00  0.0000000000000E+00  0.0000000000000E+00
   371  3.7000000000000E+00  0.0000000000000E+00  0.0000000000000E+00
   372  3.7100000000000E+00  0.0000000000000E+00  0.0000000000000E+00
   373  3.7200000000000E+00  0.0000000000000E+00  0.0000000000000E+00
   374  3.7300000000000E+00  0.0000000000000E+00  0.0000000000000E+00
   375  3.7400000000000E+00  0.0000000000000E+00  0.0000000000000E+00
   376  3.7500000000000E+00  0.0000000000000E+00  0.0000000000000E+00
   377  3.7600000000000E+00  0.0000000000000E+00  0.0000000000000E+00
   378  3.7700000000000E+00  0.0000000000000E+00  0.0000000000000E+00
   379  3.7800000000000E+00  0.0000000000000E+00  0.0000000000000E+00
   380  3.7900000000000E+00  0.0000000000000E+00  0.0000000000000E+00
   381  3.8000000000000E+00  0.0000000000000E+00  0.0000000000000E+00
   382  3.8100000000000E+00  0.0000000000000E+00  0.0000000000000E+00
   383  3.8200000000000E+00  0.0000000000000E+00  0.0000000000000E+00
   384  3.8300000000000E+00  0.0000000000000E+00  0.0000000000000E+00
   385  3.8400000000000E+00  0.0000000000000E+00  0.0000000000000E+00
   386  3.8500000000000E+00  0.0000000000000E+00  0.0000000000000E+00
   387  3.8600000000000E+00  0.0000000000000E+00  0.0000000000000E+00
   388  3.8700000000000E+00  0.0000000000000E+00  0.0000000000000E+00
   389  3.8800000000000E+00  0.0000000000000E+00  0.0000000000000E+00
   390  3.8900000000000E+00  0.0000000000000E+00  0.0000000000000E+00
   391  3.9000000000000E+00  0.0000000000000E+00  0.0000000000000E+00
   392  3.9100000000000E+00  0.0000000000000E+00  0.0000000000000E+00
   393  3.9200000000000E+00  0.0000000000000E+00  0.0000000000000E+00
   394  3.9300000000000E+00  0.0000000000000E+00  0.0000000000000E+00
   395  3.9400000000000E+00  0.0000000000000E+00  0.0000000000000E+00
   396  3.9500000000000E+00  0.0000000000000E+00  0.0000000000000E+00
   397  3.9600000000000E+00  0.0000000000000E+00  0.0000000000000E+00
   398  3.9700000000000E+00  0.0000000000000E+00  0.0000000000000E+00
   399  3.9800000000000E+00  0.0000000000000E+00  0.0000000000000E+00
   400  3.9900000000000E+00  0.0000000000000E+00  0.0000000000000E+00
   401  4.0000000000000E+00  0.0000000000000E+00  0.0000000000000E+00
   402  4.0100000000000E+00  0.0000000000000E+00  0.0000000000000E+00
   403  4.0200000000000E+00  0.0000000000000E+00  0.0000000000000E+00
   404  4.0300000000000E+00  0.0000000000000E+00  0.0000000000000E+00
   405  4.0400000000000E+00  0.0000000000000E+00  0.0000000000000E+00
   406  4.0500000000000E+00  0.0000000000000E+00  0.0000000000000E+00
   407  4.0600000000000E+00  0.0000000000000E+00  0.0000000000000E+00
   408  4.0700000000000E+00  0.0000000000000E+00  0.0000000000000E+00
   409  4.0800000000000E+00  0.0000000000000E+00  0.0000000000000E+00
   410  4.0900000000000E+00  0.0000000000000E+00  0.0000000000000E+00
   411  4.1000000000000E+00  0.0000000000000E+00  0.0000000000000E+00
   412  4.1100000000000E+00  0.0000000000000E+00  0.0000000000000E+00
   413  4.1200000000000E+00  0.0000000000000E+00  0.0000000000000E+00
   414  4.1300000000000E+00  0.0000000000000E+00  0.0000000000000E+00
   415  4.1400000000000E+00  0.0000000000000E+00  0.0000000000000E+00
   416  4.1500000000000E+00  0.0000000000000E+00  0.0000000000000E+00
   417  4.1600000000000E+00  0.0000000000000E+00  0.0000000000000E+00
   418  4.1700000000000E+00  0.0000000000000E+00  0.0000000000000E+00
   419  4.1800000000000E+00  0.0000000000000E+00  0.0000000000000E+00
   420  4.1900000000000E+00  0.0000000000000E+00  0.0000000000000E+00
   421  4.2000000000000E+00  0.0000000000000E+00  0.0000000000000E+00
   422  4.2100000000000E+00  0.0000000000000E+00  0.0000000000000E+00
   423  4.2200000000000E+00  0.0000000000000E+00  0.0000000000000E+00